      -----------------------------------------------------------      
     |                   =====================                   |     
     |                           x T B                           |     
     |                   =====================                   |     
     |                         S. Grimme                         |     
     |          Mulliken Center for Theoretical Chemistry        |     
     |                    University of Bonn                     |     
      -----------------------------------------------------------      

   * xtb version 6.6.1 (8d0f1dd) compiled by 'conda@1efc2f54142f' on 2023-08-01

   xtb is free software: you can redistribute it and/or modify it under
   the terms of the GNU Lesser General Public License as published by
   the Free Software Foundation, either version 3 of the License, or
   (at your option) any later version.
   
   xtb is distributed in the hope that it will be useful,
   but WITHOUT ANY WARRANTY; without even the implied warranty of
   MERCHANTABILITY or FITNESS FOR A PARTICULAR PURPOSE.  See the
   GNU Lesser General Public License for more details.
   
   Cite this work as:
   * C. Bannwarth, E. Caldeweyher, S. Ehlert, A. Hansen, P. Pracht,
     J. Seibert, S. Spicher, S. Grimme, WIREs Comput. Mol. Sci., 2020, 11,
     e01493. DOI: 10.1002/wcms.1493
   
   for GFN2-xTB:
   * C. Bannwarth, S. Ehlert and S. Grimme., J. Chem. Theory Comput., 2019,
     15, 1652-1671. DOI: 10.1021/acs.jctc.8b01176
   for GFN1-xTB:
   * S. Grimme, C. Bannwarth, P. Shushkov, J. Chem. Theory Comput., 2017,
     13, 1989-2009. DOI: 10.1021/acs.jctc.7b00118
   for GFN0-xTB:
   * P. Pracht, E. Caldeweyher, S. Ehlert, S. Grimme, ChemRxiv, 2019, preprint.
     DOI: 10.26434/chemrxiv.8326202.v1
   for GFN-FF:
   * S. Spicher and S. Grimme, Angew. Chem. Int. Ed., 2020, 59, 15665-15673.
     DOI: 10.1002/anie.202004239
   
   for ALPB and GBSA implicit solvation:
   * S. Ehlert, M. Stahn, S. Spicher, S. Grimme, J. Chem. Theory Comput.,
     2021, 17, 4250-4261. DOI: 10.1021/acs.jctc.1c00471
   
   for DFT-D4:
   * E. Caldeweyher, C. Bannwarth and S. Grimme, J. Chem. Phys., 2017,
     147, 034112. DOI: 10.1063/1.4993215
   * E. Caldeweyher, S. Ehlert, A. Hansen, H. Neugebauer, S. Spicher,
     C. Bannwarth and S. Grimme, J. Chem. Phys., 2019, 150, 154122.
     DOI: 10.1063/1.5090222
   * E. Caldeweyher, J.-M. Mewes, S. Ehlert and S. Grimme, Phys. Chem. Chem. Phys.
     2020, 22, 8499-8512. DOI: 10.1039/D0CP00502A
   
   for sTDA-xTB:
   * S. Grimme and C. Bannwarth, J. Chem. Phys., 2016, 145, 054103.
     DOI: 10.1063/1.4959605
   
   in the mass-spec context:
   * V. Asgeirsson, C. Bauer and S. Grimme, Chem. Sci., 2017, 8, 4879.
     DOI: 10.1039/c7sc00601b
   * J. Koopman and S. Grimme, ACS Omega 2019, 4, 12, 15120-15133.
     DOI: 10.1021/acsomega.9b02011
   
   for metadynamics refer to:
   * S. Grimme, J. Chem. Theory Comput., 2019, 155, 2847-2862
     DOI: 10.1021/acs.jctc.9b00143
   
   for SPH calculations refer to:
   * S. Spicher and S. Grimme, J. Chem. Theory Comput., 2021, 17, 1701-1714
     DOI: 10.1021/acs.jctc.0c01306
   
   with help from (in alphabetical order)
   P. Atkinson, C. Bannwarth, F. Bohle, G. Brandenburg, E. Caldeweyher
   M. Checinski, S. Dohm, S. Ehlert, S. Ehrlich, I. Gerasimov, C. Hölzer
   A. Katbashev, J. Koopman, C. Lavigne, S. Lehtola, F. März, M. Müller,
   F. Musil, H. Neugebauer, J. Pisarek, C. Plett, P. Pracht, F. Pultar,
   J. Seibert, P. Shushkov, S. Spicher, M. Stahn, M. Steiner, T. Strunk,
   J. Stückrath, T. Rose, and J. Unsleber
   
 * started run on 2024/04/22 at 08:11:09.469     

           -------------------------------------------------
          |                Calculation Setup                |
           -------------------------------------------------

          program call               : xtb c.xyz --charge 0 --uhf 2 --extreme --hess -v
          coordinate file            : c.xyz
          xtbhome directory          : /home/dmitry
          path for xtb               : /home/dmitry
          xcontrol input file        : c.xyz
          omp threads                :                    12

$$$$$$$$$$$$$$$$$$$$$$$$$$$$$$$$$$$$$$$$$$$$$$$$$$$$$$$$$$$$$$$$$$$$$$$$
 CONSTRAINTS & SCANS: DEBUG SECTION
$$$$$$$$$$$$$$$$$$$$$$$$$$$$$$$$$$$$$$$$$$$$$$$$$$$$$$$$$$$$$$$$$$$$$$$$
   ID    Z sym.   atoms
    1    6 C      1
$$$$$$$$$$$$$$$$$$$$$$$$$$$$$$$$$$$$$$$$$$$$$$$$$$$$$$$$$$$$$$$$$$$$$$$$
########################################################################
[WARNING] Please study the warnings concerning your input carefully
-1- prog_main_parseArguments: Unknown option '--extreme' provided
########################################################################

           -------------------------------------------------
          |                 G F N 2 - x T B                 |
           -------------------------------------------------

        Reference                      10.1021/acs.jctc.8b01176
      * Hamiltonian:
        H0-scaling (s, p, d)           1.850000    2.230000    2.230000
        zeta-weighting                 0.500000
      * Dispersion:
        s8                             2.700000
        a1                             0.520000
        a2                             5.000000
        s9                             5.000000
      * Repulsion:
        kExp                           1.500000    1.000000
        rExp                           1.000000
      * Coulomb:
        alpha                          2.000000
        third order                    shell-resolved
        anisotropic                    true
        a3                             3.000000
        a5                             4.000000
        cn-shift                       1.200000
        cn-exp                         4.000000
        max-rad                        5.000000


          ...................................................
          :                      SETUP                      :
          :.................................................:
          :  # basis functions                   4          :
          :  # atomic orbitals                   4          :
          :  # shells                            2          :
          :  # electrons                         4          :
          :  max. iterations                   250          :
          :  Hamiltonian                  GFN2-xTB          :
          :  restarted?                      false          :
          :  GBSA solvation                  false          :
          :  PC potential                    false          :
          :  electronic temp.          300.0000000     K    :
          :  accuracy                    1.0000000          :
          :  -> integral cutoff          0.2500000E+02      :
          :  -> integral neglect         0.1000000E-07      :
          :  -> SCF convergence          0.1000000E-05 Eh   :
          :  -> wf. convergence          0.1000000E-03 e    :
          :  Broyden damping             0.4000000          :
          ...................................................

 iter      E             dE          RMSdq      gap      omega  full diag
   1     -1.7932964 -0.179330E+01  0.141E+01    0.00       0.0  T
   2     -1.7932964  0.000000E+00  0.113E+01    0.00       0.0  T
   3     -1.7932964  0.000000E+00  0.871E+00    0.00       0.0  T
   4     -1.7932964  0.000000E+00  0.697E+00    0.00       0.0  T
   5     -1.7932964  0.000000E+00  0.558E+00    0.00       0.0  T
   6     -1.7932964  0.000000E+00  0.446E+00    0.00       0.0  T
   7     -1.7932964  0.000000E+00  0.357E+00    0.00       0.0  T
   8     -1.7932964  0.000000E+00  0.285E+00    0.00       0.0  T
   9     -1.7932964  0.000000E+00  0.228E+00    0.00       0.0  T
  10     -1.7932964  0.000000E+00  0.183E+00    0.00       0.0  T
  11     -1.7932964  0.000000E+00  0.146E+00    0.00       0.0  T
  12     -1.7932964  0.000000E+00  0.117E+00    0.00       0.0  T
  13     -1.7932964  0.000000E+00  0.935E-01    0.00       0.0  T
  14     -1.7932964  0.000000E+00  0.748E-01    0.00       0.0  T
  15     -1.7932964  0.000000E+00  0.599E-01    0.00       0.0  T
  16     -1.7932964  0.000000E+00  0.479E-01    0.00       0.0  T
  17     -1.7932964  0.000000E+00  0.383E-01    0.00       0.0  T
  18     -1.7932964  0.000000E+00  0.307E-01    0.00       0.0  T
  19     -1.7932964  0.000000E+00  0.245E-01    0.00       0.0  T
  20     -1.7932964  0.000000E+00  0.196E-01    0.00       0.0  T
  21     -1.7932964  0.000000E+00  0.157E-01    0.00       0.0  T
  22     -1.7932964  0.000000E+00  0.126E-01    0.00       0.0  T
  23     -1.7932964  0.000000E+00  0.100E-01    0.00       0.0  T
  24     -1.7932964  0.000000E+00  0.803E-02    0.00       0.0  T
  25     -1.7932964  0.000000E+00  0.643E-02    0.00       0.0  T
  26     -1.7932964  0.000000E+00  0.514E-02    0.00       0.0  T
  27     -1.7932964  0.000000E+00  0.411E-02    0.00       0.0  T
  28     -1.7932964  0.000000E+00  0.329E-02    0.00       0.0  T
  29     -1.7932964  0.000000E+00  0.263E-02    0.00       0.0  T
  30     -1.7932964  0.000000E+00  0.211E-02    0.00       0.0  T
  31     -1.7932964  0.000000E+00  0.169E-02    0.00       0.0  T
  32     -1.7932964  0.000000E+00  0.135E-02    0.00       0.0  T
  33     -1.7932964  0.000000E+00  0.108E-02    0.00       0.0  T
  34     -1.7932964  0.000000E+00  0.863E-03    0.00       0.0  T
  35     -1.7932964  0.000000E+00  0.690E-03    0.00       0.0  T
  36     -1.7932964  0.000000E+00  0.552E-03    0.00       0.0  T
  37     -1.7932964  0.000000E+00  0.442E-03    0.00       0.0  T
  38     -1.7932964  0.000000E+00  0.353E-03    0.00       0.0  T
  39     -1.7932964  0.000000E+00  0.283E-03    0.00       0.0  T
  40     -1.7932964  0.000000E+00  0.226E-03    0.00       0.0  T
  41     -1.7932964  0.000000E+00  0.181E-03    0.00       0.0  T
  42     -1.7932964  0.000000E+00  0.145E-03    0.00       0.0  T
  43     -1.7932964  0.000000E+00  0.116E-03    0.00       0.0  T
  44     -1.7932964  0.000000E+00  0.926E-04    0.00       0.0  T
  45     -1.7932964  0.000000E+00  0.741E-04    0.00       0.0  T

   *** convergence criteria satisfied after 45 iterations ***

         #    Occupation            Energy/Eh            Energy/eV
      -------------------------------------------------------------
         1        2.0000           -0.6918215             -18.8254
         2        0.6667           -0.4732266             -12.8772
         3        0.6667           -0.4732266             -12.8772 (HOMO)
         4        0.6667           -0.4732266             -12.8772 (LUMO)
      -------------------------------------------------------------
                  HL-Gap            0.0000000 Eh            0.0000 eV
             Fermi-level           -0.5275461 Eh          -14.3553 eV

 transition dipole moment (au) for excitation:           2           3
     X       Y       Z   
   0.0000   0.0000   0.0000  total (au/Debye):    0.000   0.000
 dE (eV)             :    0.000
 oscillator strength :  0.00000E+00

 SCC (total)                   0 d,  0 h,  0 min,  0.002 sec
 SCC setup                      ...        0 min,  0.001 sec ( 40.134%)
 Dispersion                     ...        0 min,  0.000 sec (  0.879%)
 classical contributions        ...        0 min,  0.000 sec ( 10.892%)
 integral evaluation            ...        0 min,  0.000 sec (  2.570%)
 iterations                     ...        0 min,  0.001 sec ( 39.559%)
 molecular gradient             ...        0 min,  0.000 sec (  2.941%)
 printout                       ...        0 min,  0.000 sec (  2.728%)

         :::::::::::::::::::::::::::::::::::::::::::::::::::::
         ::                     SUMMARY                     ::
         :::::::::::::::::::::::::::::::::::::::::::::::::::::
         :: total energy              -1.793296371365 Eh    ::
         :: gradient norm              0.000000000000 Eh/a0 ::
         :: HOMO-LUMO gap              0.000000000000 eV    ::
         ::.................................................::
         :: HOMO orbital eigv.       -12.877152565157 eV    ::
         :: LUMO orbital eigv.       -12.877152565157 eV    ::
         ::.................................................::
         :: SCC energy                -1.793296371365 Eh    ::
         :: -> isotropic ES           -0.025000000000 Eh    ::
Molecule has the following symmetry elements: (i) (Cinf) (sigma) 
It seems to be the Kh point group
         :: -> anisotropic ES          0.000000000000 Eh    ::
         :: -> anisotropic XC          0.000000000000 Eh    ::
         :: -> dispersion              0.000000000000 Eh    ::
         :: repulsion energy           0.000000000000 Eh    ::
         :: add. restraining           0.000000000000 Eh    ::
         :: total charge               0.000000000000 e     ::
         ::.................................................::
         :: atomisation energy         0.170416906801 Eh    ::
         :::::::::::::::::::::::::::::::::::::::::::::::::::::

           ------------------------------------------------- 
          |                Numerical Hessian                |
           ------------------------------------------------- 
step length          :   0.00500
SCC accuracy         :   0.30000
Hessian scale factor :   1.00000
frozen atoms in %    :   0.00000    0
RMS gradient         :   0.00000

writing file <hessian>.

 vibrational frequencies (cm⁻¹)
eigval :        0.29     0.29     0.29
           -------------------------------------------------
          |                Property Printout                |
           -------------------------------------------------

    * Orbital Energies and Occupations

         #    Occupation            Energy/Eh            Energy/eV
      -------------------------------------------------------------
         1        2.0000           -0.6918303             -18.8257
         2        0.6667           -0.4732314             -12.8773
         3        0.6667           -0.4732314             -12.8773 (HOMO)
         4        0.6667           -0.4732314             -12.8773 (LUMO)
      -------------------------------------------------------------
                  HL-Gap            0.0000000 Eh            0.0000 eV
             Fermi-level           -0.5275519 Eh          -14.3554 eV

     #   Z          covCN         q      C6AA      α(0)
     1   6 C        0.000     0.000    49.264    12.336

 Mol. C6AA /au·bohr⁶  :         49.263764
 Mol. C8AA /au·bohr⁸  :       1424.793668
 Mol. α(0) /au        :         12.336204


Wiberg/Mayer (AO) data.
largest (>0.10) Wiberg bond orders for each atom

 ---------------------------------------------------------------------------
     #   Z sym  total        # sym  WBO       # sym  WBO       # sym  WBO
 ---------------------------------------------------------------------------
     1   6 C    0.000
 ---------------------------------------------------------------------------


molecular dipole:
                 x           y           z       tot (Debye)
 q only:        0.000       0.000       0.000
   full:        0.000       0.000       0.000       0.000
molecular quadrupole (traceless):
                xx          xy          yy          xz          yz          zz
 q only:        0.000       0.000       0.000       0.000       0.000       0.000
  q+dip:        0.000       0.000       0.000       0.000       0.000       0.000
   full:        0.000       0.000       0.000       0.000       0.000       0.000

           -------------------------------------------------
          |               Frequency Printout                |
           -------------------------------------------------
 vibrational frequencies (cm⁻¹)
eigval :        0.29     0.29     0.29
 reduced masses (amu)
   1:  0.00   2:  0.00   3:  0.00
 IR intensities (km·mol⁻¹)
   1:  0.00   2:  0.00   3:  0.00
 Raman intensities (amu)
   1:  0.00   2:  0.00   3:  0.00
 output can be read by thermo (or use thermo option).
 writing <g98.out> molden fake output.
 recommended (thermochemical) frequency scaling factor: 1.0
           -------------------------------------------------
          |             Thermodynamic Functions             |
           -------------------------------------------------

Kh  symmetry found (for desy threshold:  0.10E+00) used in thermo

          ...................................................
          :                      SETUP                      :
          :.................................................:
          :  # frequencies                           0      :
          :  # imaginary freq.                       0      :
          :  linear?                              true      :
          :  only rotor calc.                     true      :
          :  symmetry                               Kh      :
          :  rotational number                       1      :
          :  scaling factor                  1.0000000      :
          :  rotor cutoff                   50.0000000 cm⁻¹ :
          :  imag. cutoff                  -20.0000000 cm⁻¹ :
          :.................................................:

    mode    ω/cm⁻¹     T·S(HO)/kcal·mol⁻¹    T·S(FR)/kcal·mol⁻¹   T·S(vib)
   ------------------------------------------------------------------------
   ------------------------------------------------------------------------

   temp. (K)  partition function   enthalpy   heat capacity  entropy
                                   cal/mol     cal/K/mol   cal/K/mol   J/K/mol
 298.15  VIB   1.00                    0.000      0.000      0.000
         ROT   1.00                    0.000      0.000      0.000
         INT   1.00                    0.000      0.000      0.000
         TR   0.403E+26             1481.254      4.968     33.385
         TOT                        1481.2539     4.9681    33.3855   139.6848

       T/K    H(0)-H(T)+PV         H(T)/Eh          T*S/Eh         G(T)/Eh
   ------------------------------------------------------------------------
    298.15    0.236053E-02    0.236053E-02    0.158625E-01   -0.135020E-01
   ------------------------------------------------------------------------

         :::::::::::::::::::::::::::::::::::::::::::::::::::::
         ::                  THERMODYNAMIC                  ::
         :::::::::::::::::::::::::::::::::::::::::::::::::::::
         :: total free energy          -1.806798355685 Eh   ::
         ::.................................................::
         :: total energy               -1.793296371365 Eh   ::
         :: zero point energy           0.000000000000 Eh   ::
         :: G(RRHO) w/o ZPVE           -0.013501984320 Eh   ::
         :: G(RRHO) contrib.           -0.013501984320 Eh   ::
         :::::::::::::::::::::::::::::::::::::::::::::::::::::

           -------------------------------------------------
          | TOTAL ENERGY               -1.793296371365 Eh   |
          | TOTAL ENTHALPY             -1.790935842985 Eh   |
          | TOTAL FREE ENERGY          -1.806798355685 Eh   |
          | GRADIENT NORM               0.000000000000 Eh/α |
          | HOMO-LUMO GAP               0.000000000000 eV   |
           -------------------------------------------------
########################################################################
[WARNING] Runtime exception occurred
-3- restart_readRestart: Dimension missmatch in restart file.
-2- restart_readRestart: Multiplicity missmatch in restart file.
-1- restart_readRestart: Number of electron missmatch in restart file.
########################################################################

------------------------------------------------------------------------
 unit  open   action     filename
   10 false : read       c.xyz
   10 false : read       c.xyz
   10 false : read       c.xyz
   10 false : read       xtbrestart
   10 false : replaced   hessian
   10 false : replaced   charges
   10 false : replaced   wbo
   10 false : replaced   vibspectrum
   10  true : replaced   g98.out
   11 false : replaced   xtbrestart

------------------------------------------------------------------------
 * finished run on 2024/04/22 at 08:11:09.575     
------------------------------------------------------------------------
 total:
 * wall-time:     0 d,  0 h,  0 min,  0.105 sec
 *  cpu-time:     0 d,  0 h,  0 min,  1.256 sec
 * ratio c/w:    11.914 speedup
 SCF:
 * wall-time:     0 d,  0 h,  0 min,  0.002 sec
 *  cpu-time:     0 d,  0 h,  0 min,  0.015 sec
 * ratio c/w:     7.228 speedup
 analytical hessian:
 * wall-time:     0 d,  0 h,  0 min,  0.001 sec
 *  cpu-time:     0 d,  0 h,  0 min,  0.025 sec
 * ratio c/w:    17.965 speedup

