id,subset,key,smiles,formula,level,mwt,nH,nC,nCl,E,H,S,G,dE,dH,dS,dG,zpe,homo,lumo,gap,Mu,alpha,tMu,rotA,rotB,rotC
3-0023,monoCl,AMJDMFWZRIFYRR-UHFFFAOYSA-N,c1ccc2c(c1)ccc1c2cc2c3cc4cc(Cl)ccc4cc3ccc2c1,C26H15Cl,r2scan,362.859,15,26,1,-1459.816968652436,-1459.4749994648,0.0002209267,-1459.5408687564,8.60628180974,8.363452802,0.0019687767,7.7764618673,0.3216432265,-5.2832,-2.6244,2.6588,2.0705,382.73263,0.43901 0.68616 -0.00005,0.010516,0.002942,0.002299
3-0023,monoCl,AMJDMFWZRIFYRR-UHFFFAOYSA-N,c1ccc2c(c1)ccc1c2cc2c3cc4cc(Cl)ccc4cc3ccc2c1,C26H15Cl,d4tzvp,362.859,15,26,1,-1460.904429723663,-1460.5624605361002,0.0002209267,-1460.6283298277,8.483596421625,8.2407674137,0.0019687767,7.6537764805,0.3216432265,-7.773,-0.2391,7.5339,2.12144,359.17519,0.42598 0.71773 -0.00004,0.010516,0.002942,0.002299
3-0024,monoCl,APAWEZICFWYTPC-UHFFFAOYSA-N,c1ccc2c(c1Cl)cc1c(c2)cc2-c3c4c(-c2c1)cccc4ccc3,C24H13Cl,xtb2,336.821,13,24,1,-62.600082409197,-62.300468893387,0.000212625725,-62.363863253294,9.963168430308,9.753254992938,0.001661286093,9.257942543054,0.280769346306,-9.8807,-7.8088,2.07191004483,2.061,257.164461,-0.448 -0.676 -0.000,0.01932745,0.003240173,0.002774961
3-0024,monoCl,APAWEZICFWYTPC-UHFFFAOYSA-N,c1ccc2c(c1Cl)cc1c(c2)cc2-c3c4c(-c2c1)cccc4ccc3,C24H13Cl,r2scan,336.821,13,24,1,-1382.403460097605,-1382.0976575026,0.000207216,-1382.1594389574,7.851748800815,7.6356444638,0.0017817712,7.1044092375,0.2874578388,-5.0163,-2.731,2.2853,1.9791,360.0752,-0.45010 -0.63534 -0.00002,0.019128,0.003209,0.002748
3-0024,monoCl,APAWEZICFWYTPC-UHFFFAOYSA-N,c1ccc2c(c1Cl)cc1c(c2)cc2-c3c4c(-c2c1)cccc4ccc3,C24H13Cl,d4tzvp,336.821,13,24,1,-1383.403059170129,-1383.0972565751,0.000207216,-1383.1590380299,7.737906838337,7.5218025011,0.0017817712,6.9905672761,0.2874578388,-7.4318,-0.3716,7.0602,1.95725,336.63443,-0.41706 -0.64730 -0.00002,0.019128,0.003209,0.002748
3-0025,monoCl,APQUQWWSLQKAIN-UHFFFAOYSA-N,c1ccc2c(c1)c1cccc3c1c1c2cccc1c1c3c(Cl)ccc1,C24H13Cl,xtb2,336.821,13,24,1,-62.61778002668,-62.31695499961,0.000210579265,-62.379739207411,9.980866047791,9.769741099161,0.001663332553,9.273818497171,0.282174778613,-10.1953,-7.3955,2.799831418936,1.805,257.237094,-0.271 0.633 0.176,0.01286996,0.005650961,0.004077585
3-0025,monoCl,APQUQWWSLQKAIN-UHFFFAOYSA-N,c1ccc2c(c1)c1cccc3c1c1c2cccc1c1c3c(Cl)ccc1,C24H13Cl,r2scan,336.821,13,24,1,-1382.418669188568,-1382.1113654602,0.0002047541,-1382.1724129048,7.866957891778,7.6493524214,0.0017842331,7.1173831849,0.2891840572,-5.4618,-2.2746,3.1872,1.6032,307.3152,-0.20861 0.57052 0.16976,0.012845,0.005546,0.004002
3-0025,monoCl,APQUQWWSLQKAIN-UHFFFAOYSA-N,c1ccc2c(c1)c1cccc3c1c1c2cccc1c1c3c(Cl)ccc1,C24H13Cl,d4tzvp,336.821,13,24,1,-1383.426816226073,-1383.1195124977,0.0002047541,-1383.1805599423,7.761663894281,7.5440584237,0.0017842331,7.0120891885,0.2891840572,-7.9823,0.1257,8.108,1.62577,297.43692,-0.18172 0.58775 0.17503,0.012845,0.005546,0.004002
3-0026,monoCl,APTTXLIRPILVDL-UHFFFAOYSA-N,c1ccc2c(c1)c1ccc3c(c1c(c2)Cl)ccc1c3cccc1,C22H13Cl,xtb2,312.799,13,22,1,-58.307491518002,-58.020172446086,0.000206655731,-58.08178685227,9.257170281843,9.054830231607,0.001560849831,8.5894628534,0.269403600041,-10.1006,-7.5544,2.54624174351,1.776,239.893451,0.131 -0.659 0.192,0.01857921,0.004944286,0.003977661
3-0026,monoCl,APTTXLIRPILVDL-UHFFFAOYSA-N,c1ccc2c(c1)c1ccc3c(c1c(c2)Cl)ccc1c3cccc1,C22H13Cl,r2scan,312.799,13,22,1,-1306.195857059633,-1305.9020636997,0.0002000566,-1305.9617105664,7.308577937379,7.0997618745,0.0016755182,6.6002059799,0.2764580694,-5.3764,-2.372,3.0044,1.68996,302.25593,0.15221 -0.61356 0.20596,0.018173,0.004898,0.003927
3-0026,monoCl,APTTXLIRPILVDL-UHFFFAOYSA-N,c1ccc2c(c1)c1ccc3c(c1c(c2)Cl)ccc1c3cccc1,C22H13Cl,d4tzvp,312.799,13,22,1,-1307.127321772416,-1306.8335284124998,0.0002000566,-1306.8931752791998,7.20779135619,6.9989752931,0.0016755182,6.4994193998,0.2764580694,-7.9319,0.0712,8.0031,1.72863,290.27265,0.20548 -0.61409 0.20779,0.018173,0.004898,0.003927
3-0027,monoCl,AQOBQQAGQCOUDY-UHFFFAOYSA-N,c1ccc2-c3c4c(-c2c1)cc1c2cccc(c2ccc1c4ccc3)Cl,C24H13Cl,xtb2,336.821,13,24,1,-62.605758817164,-62.30556532478,0.000213762867,-62.369298723561,9.968844838275,9.758351424331,0.001660148951,9.263378013321,0.281238113641,-10.1998,-7.9047,2.295100336582,1.697,257.152393,-0.602 0.288 0.000,0.0162919,0.003862255,0.003122109
3-0027,monoCl,AQOBQQAGQCOUDY-UHFFFAOYSA-N,c1ccc2-c3c4c(-c2c1)cc1c2cccc(c2ccc1c4ccc3)Cl,C24H13Cl,r2scan,336.821,13,24,1,-1382.409611122281,-1382.10349009,0.0002088784,-1382.165767171,7.857899825491,7.6414770512,0.0017801088,7.1107374511,0.2875382636,-5.4734,-2.7994,2.674,1.60138,329.68937,-0.56685 0.27496 0.00001,0.016143,0.003824,0.003092
3-0027,monoCl,AQOBQQAGQCOUDY-UHFFFAOYSA-N,c1ccc2-c3c4c(-c2c1)cc1c2cccc(c2ccc1c4ccc3)Cl,C24H13Cl,d4tzvp,336.821,13,24,1,-1383.414756602037,-1383.1086355696998,0.0002088784,-1383.1709126506998,7.749604270245,7.5331814957,0.0017801088,7.0024418969,0.2875382636,-7.9741,-0.466,7.5081,1.68994,315.02053,-0.59019 0.30612 0.00000,0.016143,0.003824,0.003092
3-0028,monoCl,AQVNGMPEQWMZTI-UHFFFAOYSA-N,c1c(Cl)cc2c(c1)c1-c3cccc4c3c(-c1cc2)cc1c4cccc1,C24H13Cl,xtb2,336.821,13,24,1,-62.605219695067,-62.30520927289,0.000214058775,-62.36903089666,9.968305716178,9.757995372441,0.001659853043,9.26311018642,0.281042690462,-10.1404,-7.9982,2.142208906156,3.132,257.138759,1.232 -0.004 -0.000,0.02193564,0.003292909,0.002863109
3-0028,monoCl,AQVNGMPEQWMZTI-UHFFFAOYSA-N,c1c(Cl)cc2c(c1)c1-c3cccc4c3c(-c1cc2)cc1c4cccc1,C24H13Cl,r2scan,336.821,13,24,1,-1382.409720730907,-1382.1037478398,0.0002085955,-1382.1659405829,7.858009434117,7.641734801,0.0017803917,7.110910863,0.2873899232,-5.3916,-2.8999,2.4917,2.85187,338.85738,1.12177 -0.02233 -0.00002,0.021735,0.003264,0.002838
3-0028,monoCl,AQVNGMPEQWMZTI-UHFFFAOYSA-N,c1c(Cl)cc2c(c1)c1-c3cccc4c3c(-c1cc2)cc1c4cccc1,C24H13Cl,d4tzvp,336.821,13,24,1,-1383.413195366043,-1383.1072224749,0.0002085955,-1383.169415218,7.748043034251,7.5317684009,0.0017803917,7.0009444642,0.2873899232,-7.987,-0.5993,7.3877,2.70902,320.74492,1.06455 -0.05134 -0.00003,0.021735,0.003264,0.002838
3-0029,monoCl,ARHUMYMHRVPSBO-UHFFFAOYSA-N,c1ccc2c(c1)c1-c3c4c(-c1cc2)cccc4cc1c3c(Cl)ccc1,C24H13Cl,xtb2,336.821,13,24,1,-62.583616200147,-62.284152990101,0.000211223734,-62.34712934637,9.946702221258,9.736939089652,0.001662688084,9.24120863613,0.280728954423,-9.7786,-8.2646,1.514018810892,1.911,257.222366,-0.624 0.236 -0.347,0.009895194,0.007619664,0.004624752
3-0029,monoCl,ARHUMYMHRVPSBO-UHFFFAOYSA-N,c1ccc2c(c1)c1-c3c4c(-c1cc2)cccc4cc1c3c(Cl)ccc1,C24H13Cl,r2scan,336.821,13,24,1,-1382.379479510691,-1382.073201645,0.0002038812,-1382.1339888212,7.827768213901,7.6111886062,0.001785106,7.0789591013,0.2881992664,-4.9843,-3.2336,1.7507,2.04853,322.78281,-0.70918 0.15448 -0.35033,0.009637,0.007479,0.004559
3-0029,monoCl,ARHUMYMHRVPSBO-UHFFFAOYSA-N,c1ccc2c(c1)c1-c3c4c(-c1cc2)cccc4cc1c3c(Cl)ccc1,C24H13Cl,d4tzvp,336.821,13,24,1,-1383.378900883888,-1383.0726230182,0.0002038812,-1383.1334101944,7.713748552096,7.4971689442,0.001785106,6.9649394406,0.2881992664,-7.4789,-1.003,6.4759,2.1083,311.41509,-0.72653 0.16684 -0.36375,0.009637,0.007479,0.004559
3-0030,monoCl,ASTJILTVJJMRTO-UHFFFAOYSA-N,c1ccc2c(c1)c1cc3ccc4c5c3c(c1cc2Cl)ccc5ccc4,C24H13Cl,xtb2,336.821,13,24,1,-62.622281082849,-62.321908988586,0.000211746736,-62.385041277909,9.98536710396,9.774695088137,0.001662165082,9.279120567669,0.281588587763,-9.8748,-7.8688,2.005953170346,2.089,257.252079,-0.469 0.675 -0.000,0.01626244,0.004191297,0.003332434
3-0030,monoCl,ASTJILTVJJMRTO-UHFFFAOYSA-N,c1ccc2c(c1)c1cc3ccc4c5c3c(c1cc2Cl)ccc5ccc4,C24H13Cl,r2scan,336.821,13,24,1,-1382.429837607608,-1382.1233284317,0.000206826,-1382.1849936036,7.878126310818,7.6613153929,0.0017821612,7.1299638837,0.2881575018,-5.0797,-2.6831,2.3966,1.90507,343.23224,-0.39738 0.63548 -0.00016,0.016048,0.004165,0.003307
3-0030,monoCl,ASTJILTVJJMRTO-UHFFFAOYSA-N,c1ccc2c(c1)c1cc3ccc4c5c3c(c1cc2Cl)ccc5ccc4,C24H13Cl,d4tzvp,336.821,13,24,1,-1383.431175607303,-1383.1246664314,0.000206826,-1383.1863316033002,7.766023275511,7.5492123574,0.0017821612,7.0178608495,0.2881575018,-7.4238,-0.4295,6.9943,1.96263,328.00684,-0.42504 0.64463 -0.00015,0.016048,0.004165,0.003307
3-0031,monoCl,ASUHAKUHNQZMHX-UHFFFAOYSA-N,c1ccc2c(c1)c1c3c(-c4c(-c3cc3c1cc(Cl)cc3)cccc4)c2,C24H13Cl,xtb2,336.821,13,24,1,-62.603112070715,-62.302969205718,0.000213227783,-62.3665430692,9.966198091826,9.755755305269,0.001660684035,9.26062235896,0.281311253349,-10.2188,-7.7466,2.472191264148,1.956,257.142617,-0.696 0.282 -0.168,0.01029319,0.005287677,0.003538752
3-0031,monoCl,ASUHAKUHNQZMHX-UHFFFAOYSA-N,c1ccc2c(c1)c1c3c(-c4c(-c3cc3c1cc(Cl)cc3)cccc4)c2,C24H13Cl,r2scan,336.821,13,24,1,-1382.406540820659,-1382.099914839,0.0002065864,-1382.1615085828,7.854829523869,7.6379018002,0.0017824008,7.1064788629,0.2883402713,-5.4707,-2.6307,2.84,1.90429,331.16058,-0.69013 0.24266 -0.16162,0.010186,0.005236,0.003495
3-0031,monoCl,ASUHAKUHNQZMHX-UHFFFAOYSA-N,c1ccc2c(c1)c1c3c(-c4c(-c3cc3c1cc(Cl)cc3)cccc4)c2,C24H13Cl,d4tzvp,336.821,13,24,1,-1383.41032266818,-1383.1036966865,0.0002065864,-1383.1652904303,7.745170336388,7.5282426125,0.0017824008,6.9968196765,0.2883402713,-8.0322,-0.303,7.7292,2.05852,315.51695,-0.75541 0.24088 -0.16496,0.010186,0.005236,0.003495
3-0032,monoCl,ATNAONXCJNYXAW-UHFFFAOYSA-N,c1ccc2c(c1)c1ccc(cc1c1c2ccc2c1c1ccccc1cc2)Cl,C26H15Cl,xtb2,362.859,15,26,1,-67.904256161563,-67.56886406523,0.000225469725,-67.636087863627,10.893783912072,10.657534007699,0.001837724399,10.109616476715,0.314714533469,-10.1555,-7.4515,2.703996340882,2.178,279.838603,0.364 -0.682 -0.370,0.008328963,0.005552088,0.003754618
3-0032,monoCl,ATNAONXCJNYXAW-UHFFFAOYSA-N,c1ccc2c(c1)c1ccc(cc1c1c2ccc2c1c1ccccc1cc2)Cl,C26H15Cl,r2scan,362.859,15,26,1,-1459.806090853313,-1459.4628644209,0.0002166269,-1459.5274517408,8.595404010617,8.3513177581,0.0019730765,7.7630448517,0.3233234479,-5.4313,-2.396,3.0353,1.92178,339.8552,0.31497 -0.57983 -0.36910,0.0082,0.005468,0.003684
3-0032,monoCl,ATNAONXCJNYXAW-UHFFFAOYSA-N,c1ccc2c(c1)c1ccc(cc1c1c2ccc2c1c1ccccc1cc2)Cl,C26H15Cl,d4tzvp,362.859,15,26,1,-1460.89742469616,-1460.5541982638,0.0002166269,-1460.6187855837,8.476591394122,8.2325051414,0.0019730765,7.6442322365,0.3233234479,-7.9558,0.0349,7.9907,1.97884,326.57685,0.34399 -0.59486 -0.36594,0.0082,0.005468,0.003684
3-0033,monoCl,AUJNZSKCGGBPAV-UHFFFAOYSA-N,c1cc2c(c3-c4c5c(-c13)cccc5cc(c4)Cl)ccc1c2cccc1,C24H13Cl,xtb2,336.821,13,24,1,-62.601202921309,-62.30123123464,0.000214683716,-62.365239184613,9.96428894242,9.754017334191,0.001659228102,9.259318474373,0.280948443727,-10.1871,-8.0576,2.129464352064,2.102,257.145676,0.175 -0.808 0.000,0.01356816,0.004126185,0.003163991
3-0033,monoCl,AUJNZSKCGGBPAV-UHFFFAOYSA-N,c1cc2c(c3-c4c5c(-c13)cccc5cc(c4)Cl)ccc1c2cccc1,C24H13Cl,r2scan,336.821,13,24,1,-1382.405113500658,-1382.0990756201,0.0002095169,-1382.1615430923,7.853402203868,7.6370625813,0.0017794703,7.1065133724,0.2874187934,-5.4722,-2.9817,2.4905,2.03628,331.50406,0.17277 -0.78227 0.00005,0.013435,0.00409,0.003135
3-0033,monoCl,AUJNZSKCGGBPAV-UHFFFAOYSA-N,c1cc2c(c3-c4c5c(-c13)cccc5cc(c4)Cl)ccc1c2cccc1,C24H13Cl,d4tzvp,336.821,13,24,1,-1383.409411081262,-1383.1033732007,0.0002095169,-1383.1658406729,7.74425874947,7.5279191267,0.0017794703,6.9973699191,0.2874187934,-8.0722,-0.6406,7.4316,2.07843,314.95114,0.18090 -0.79744 0.00004,0.013435,0.00409,0.003135
3-0034,monoCl,AUMVEPSHWORESG-UHFFFAOYSA-N,c1c(Cl)cc2-c3c(-c2c1)c1c(cc3)cc2c(c1)cccc2,C20H11Cl,xtb2,286.761,11,20,1,-52.927276158108,-52.676663988802,0.000196849819,-52.735354762434,8.250513192551,8.075437931405,0.001381373437,7.663581440236,0.234189409536,-9.6945,-8.1286,1.56597046138,2.882,214.170149,-1.122 -0.161 -0.000,0.02997026,0.004171748,0.00366201
3-0034,monoCl,AUMVEPSHWORESG-UHFFFAOYSA-N,c1c(Cl)cc2-c3c(-c2c1)c1c(cc3)cc2c(c1)cccc2,C20H11Cl,r2scan,286.761,11,20,1,-1228.708122217801,-1228.4525194429,0.0001923337,-1228.509863742,6.479818641453,6.2997512417,0.0014825249,5.8577363247,0.2395281951,-4.78,-3.0496,1.7304,2.94601,290.45718,-1.14281 -0.19319 -0.00003,0.029629,0.004132,0.003626
3-0034,monoCl,AUMVEPSHWORESG-UHFFFAOYSA-N,c1c(Cl)cc2-c3c(-c2c1)c1c(cc3)cc2c(c1)cccc2,C20H11Cl,d4tzvp,286.761,11,20,1,-1229.548137940791,-1229.2925351658998,0.0001923337,-1229.349879465,6.384288494811,6.2042210949,0.0014825249,5.762206179,0.2395281951,-7.2198,-0.657,6.5628,3.03857,275.1954,-1.17465 -0.22200 -0.00004,0.029629,0.004132,0.003626
3-0035,monoCl,AUZWGYWEWNHIEM-UHFFFAOYSA-N,c1ccc2c(c1)cc1-c3ccc(c4c3c(-c1c2)cc1c4cccc1)Cl,C24H13Cl,xtb2,336.821,13,24,1,-62.604619961403,-62.304573726168,0.000213150916,-62.368124671807,9.967705982514,9.757359825719,0.001660760902,9.262203961567,0.281209182203,-10.0929,-7.7623,2.330604221091,1.763,257.201243,0.544 0.430 0.000,0.0152505,0.004019805,0.00318127
3-0035,monoCl,AUZWGYWEWNHIEM-UHFFFAOYSA-N,c1ccc2c(c1)cc1-c3ccc(c4c3c(-c1c2)cc1c4cccc1)Cl,C24H13Cl,r2scan,336.821,13,24,1,-1382.40561513318,-1382.0997712774,0.0002092409,-1382.1621564574,7.85390383639,7.6377582386,0.0017797463,7.1071267375,0.2872172118,-5.2838,-2.6543,2.6295,1.47562,344.66196,0.41953 0.40128 0.00001,0.015003,0.003987,0.00315
3-0035,monoCl,AUZWGYWEWNHIEM-UHFFFAOYSA-N,c1ccc2c(c1)cc1-c3ccc(c4c3c(-c1c2)cc1c4cccc1)Cl,C24H13Cl,d4tzvp,336.821,13,24,1,-1383.409445290321,-1383.1036014345,0.0002092409,-1383.1659866145,7.744292958529,7.5281473605,0.0017797463,6.9975158607,0.2872172118,-7.787,-0.3258,7.4612,1.5639,325.48427,0.47188 0.39483 0.00001,0.015003,0.003987,0.00315
3-0036,monoCl,AVBIQRKWGHHYNB-UHFFFAOYSA-N,c1c2c(ccc3c2ccc2c3cccc2)c2c(c1)c1ccc(cc1cc2)Cl,C26H15Cl,xtb2,362.859,15,26,1,-67.911286991793,-67.5756769519,0.000229206813,-67.644014963304,10.900814742302,10.664346894369,0.001833987311,10.117543576392,0.314567127471,-10.1074,-7.5948,2.512643390774,2.605,279.835173,-1.025 0.028 0.000,0.02760148,0.002169539,0.002011436
3-0036,monoCl,AVBIQRKWGHHYNB-UHFFFAOYSA-N,c1c2c(ccc3c2ccc2c3cccc2)c2c(c1)c1ccc(cc1cc2)Cl,C26H15Cl,r2scan,362.859,15,26,1,-1459.82021031716,-1459.4776783391,0.0002218525,-1459.5438236552,8.609523474464,8.3661316763,0.0019678509,7.7794167661,0.3220538652,-5.3964,-2.3675,3.0289,2.37,376.29164,-0.93173 0.03573 0.00002,0.027322,0.002153,0.001996
3-0036,monoCl,AVBIQRKWGHHYNB-UHFFFAOYSA-N,c1c2c(ccc3c2ccc2c3cccc2)c2c(c1)c1ccc(cc1cc2)Cl,C26H15Cl,d4tzvp,362.859,15,26,1,-1460.911035812668,-1460.5685038346,0.0002218525,-1460.6346491507,8.49020251063,8.2468107122,0.0019678509,7.6600958035,0.3220538652,-7.9043,0.0494,7.9537,2.36132,356.28341,-0.92837 0.03406 0.00006,0.027322,0.002153,0.001996
3-0037,monoCl,AWLKOVAEBZYJRT-UHFFFAOYSA-N,c1cc2ccc3c4c2c(c1)ccc4cc1c3cc2cc(Cl)ccc2c1,C24H13Cl,xtb2,336.821,13,24,1,-62.61690142486,-62.317038501861,0.000211583302,-62.380122063418,9.979987445971,9.769824601412,0.001662328516,9.274201353178,0.281135062069,-9.7478,-8.0721,1.675711844621,2.46,257.24285,-0.844 -0.473 0.000,0.02145335,0.003162457,0.002756168
3-0037,monoCl,AWLKOVAEBZYJRT-UHFFFAOYSA-N,c1cc2ccc3c4c2c(c1)ccc4cc1c3cc2cc(Cl)ccc2c1,C24H13Cl,r2scan,336.821,13,24,1,-1382.423955890106,-1382.117785143,0.0002058168,-1382.1791494346,7.872244593316,7.6557721042,0.0017831704,7.1241197147,0.2879489692,-4.8879,-2.9678,1.9201,2.23497,363.46798,-0.75319 -0.45371 0.00002,0.021218,0.00314,0.002736
3-0037,monoCl,AWLKOVAEBZYJRT-UHFFFAOYSA-N,c1cc2ccc3c4c2c(c1)ccc4cc1c3cc2cc(Cl)ccc2c1,C24H13Cl,d4tzvp,336.821,13,24,1,-1383.421151205944,-1383.1149804588,0.0002058168,-1383.1763447504002,7.755998874152,7.5395263848,0.0017831704,7.0078739966,0.2879489692,-7.1795,-0.7502,6.4293,2.26922,344.45237,-0.75867 -0.47057 0.00001,0.021218,0.00314,0.002736
3-0038,monoCl,AWWTUWGJTWSUCP-UHFFFAOYSA-N,c1ccc2c(c1)c1ccccc1c1c2c2c(cc1)ccc1c2cccc1Cl,C26H15Cl,xtb2,362.859,15,26,1,-67.903070821387,-67.567608704541,0.000224991945,-67.634690053086,10.892598571896,10.65627864701,0.001838202179,10.108218666174,0.31481575392,-10.1418,-7.4539,2.687839318806,2.235,279.833398,0.875 0.032 -0.085,0.01240088,0.004073338,0.003319363
3-0038,monoCl,AWWTUWGJTWSUCP-UHFFFAOYSA-N,c1ccc2c(c1)c1ccccc1c1c2c2c(cc1)ccc1c2cccc1Cl,C26H15Cl,r2scan,362.859,15,26,1,-1459.804614107603,-1459.461247166,0.000216445,-1459.5257802559,8.593927264907,8.3497005032,0.0019732584,7.7613733668,0.3235127172,-5.4221,-2.3829,3.0392,2.07688,341.01639,0.80945 0.06474 -0.09074,0.012314,0.003996,0.003258
3-0038,monoCl,AWWTUWGJTWSUCP-UHFFFAOYSA-N,c1ccc2c(c1)c1ccccc1c1c2c2c(cc1)ccc1c2cccc1Cl,C26H15Cl,d4tzvp,362.859,15,26,1,-1460.896391848076,-1460.5530249065,0.000216445,-1460.6175579964,8.475558546038,8.2313317841,0.0019732584,7.6430046492,0.3235127172,-7.9424,0.0405,7.9829,2.06345,327.6848,0.80373 0.06392 -0.09463,0.012314,0.003996,0.003258
3-0039,monoCl,AYGMMCOHFMIIPJ-UHFFFAOYSA-N,c1c2-c3cccc4c3c(-c2cc2c1ccc1c2cccc1)ccc4Cl,C24H13Cl,xtb2,336.821,13,24,1,-62.606096108748,-62.306063651167,0.000213363986,-62.369678123524,9.969182129859,9.758849750718,0.001660547832,9.263757413284,0.281135348866,-10.1243,-7.9066,2.217699586272,1.848,257.188928,0.662 -0.300 0.000,0.01923888,0.003360896,0.002861085
3-0039,monoCl,AYGMMCOHFMIIPJ-UHFFFAOYSA-N,c1c2-c3cccc4c3c(-c2cc2c1ccc1c2cccc1)ccc4Cl,C24H13Cl,r2scan,336.821,13,24,1,-1382.410297390513,-1382.1041622442,0.0002078427,-1382.1661305563,7.858586093723,7.6421492054,0.0017811445,7.1111008364,0.2876871097,-5.3484,-2.8292,2.5192,1.55271,342.99044,0.55071 -0.26435 0.00001,0.019085,0.003328,0.002834
3-0039,monoCl,AYGMMCOHFMIIPJ-UHFFFAOYSA-N,c1c2-c3cccc4c3c(-c2cc2c1ccc1c2cccc1)ccc4Cl,C24H13Cl,d4tzvp,336.821,13,24,1,-1383.413600527546,-1383.1074653812,0.0002078427,-1383.1694336933,7.748448195754,7.5320113072,0.0017811445,7.0009629395,0.2876871097,-7.8801,-0.501,7.3791,1.67021,322.72696,0.59568 -0.27738 0.00002,0.019085,0.003328,0.002834
3-0040,monoCl,AYMAHSXQNKJPDP-UHFFFAOYSA-N,c1ccc2c(c1)c1c2c2ccc3c(c2cc1)c1c3c(Cl)ccc1,C22H11Cl,xtb2,310.783,11,22,1,-57.149122912916,-56.886074279958,0.000207222787,-56.947857754025,8.885767204629,8.702976536591,0.001477406725,8.262487720457,0.245235376386,-9.6238,-8.1271,1.496737210385,2.039,228.352844,-0.507 0.622 0.000,0.0253664,0.003672499,0.003208044
3-0040,monoCl,AYMAHSXQNKJPDP-UHFFFAOYSA-N,c1ccc2c(c1)c1c2c2ccc3c(c2cc1)c1c3c(Cl)ccc1,C22H11Cl,r2scan,310.783,11,22,1,-1304.834344363812,-1304.5666235411,0.0002027926,-1304.6270861578,6.941608612928,6.7541441263,0.0015854784,6.2814336071,0.250165975,-4.7271,-3.0556,1.6715,1.96161,320.47913,-0.46338 0.61714 0.00000,0.02511,0.00364,0.003179
3-0040,monoCl,AYMAHSXQNKJPDP-UHFFFAOYSA-N,c1ccc2c(c1)c1c2c2ccc3c(c2cc1)c1c3c(Cl)ccc1,C22H11Cl,d4tzvp,310.783,11,22,1,-1305.749400069817,-1305.4816792471,0.0002027926,-1305.5421418638,6.839928708271,6.6524642215,0.0015854784,6.1797537034,0.250165975,-7.159,-0.5745,6.5845,1.94321,298.43915,-0.43843 0.62629 0.00000,0.02511,0.00364,0.003179
3-0041,monoCl,AZRWJUNYDOLTSH-UHFFFAOYSA-N,c1cc2cc3ccc4c(c3cc2cc1Cl)c1ccccc1c1c4cccc1,C26H15Cl,xtb2,362.859,15,26,1,-67.901586208596,-67.566246262147,0.000226286405,-67.633713553901,10.891113959105,10.654916204616,0.001836907719,10.107242166989,0.314622642399,-9.8954,-7.8473,2.048086928458,2.433,279.812783,0.742 0.541 -0.268,0.01256163,0.003266028,0.002713885
3-0041,monoCl,AZRWJUNYDOLTSH-UHFFFAOYSA-N,c1cc2cc3ccc4c(c3cc2cc1Cl)c1ccccc1c1c4cccc1,C26H15Cl,r2scan,362.859,15,26,1,-1459.806174031499,-1459.4631183109,0.0002181133,-1459.5281487839,8.595487188803,8.3515716481,0.0019715901,7.7637418948,0.3230571334,-5.0921,-2.7501,2.342,2.22586,365.07206,0.65800 0.52549 -0.24030,0.012453,0.003224,0.002673
3-0041,monoCl,AZRWJUNYDOLTSH-UHFFFAOYSA-N,c1cc2cc3ccc4c(c3cc2cc1Cl)c1ccccc1c1c4cccc1,C26H15Cl,d4tzvp,362.859,15,26,1,-1460.894912157534,-1460.5518564369,0.0002181133,-1460.6168869099,8.474078855496,8.2301633145,0.0019715901,7.6423335627,0.3230571334,-7.5334,-0.4111,7.1223,2.2464,347.23123,0.65465 0.54027 -0.24622,0.012453,0.003224,0.002673