id,subset,key,smiles,formula,level,mwt,nH,nC,nCl,E,H,S,G,dE,dH,dS,dG,zpe,homo,lumo,gap,Mu,alpha,tMu,rotA,rotB,rotC
2-0191,pubchemPCH,KWFFUTRENJDNEP-UHFFFAOYSA-N,c1cc(Cl)c2c(c1)c(Cl)c1c(c2)c(Cl)ccc1,C14H7Cl3,r2scan,281.569,7,14,3,-1918.140383662396,-1917.9619724341,0.0001798518,-1918.0155952524,4.66647677549,4.5447170785,0.0011012894,4.2163675341,0.1640166914,-5.4497,-3.1037,2.346,1.50954,214.42513,-0.00004 -0.59389 0.00000,0.013771,0.010814,0.006057
2-0191,pubchemPCH,KWFFUTRENJDNEP-UHFFFAOYSA-N,c1cc(Cl)c2c(c1)c(Cl)c1c(c2)c(Cl)ccc1,C14H7Cl3,d4tzvp,281.569,7,14,3,-1918.821045348561,-1918.6426341203,0.0001798518,-1918.6962569386,4.609568779479,4.4878090825,0.0011012894,4.1594595388,0.1640166914,-7.9954,-0.7359,7.2595,1.53021,209.44567,-0.00005 -0.60202 -0.00000,0.013771,0.010814,0.006057
2-0192,pubchemPCH,KWGAEBHFLZUIRW-UHFFFAOYSA-N,c1ccc2c(c1)c1c(Cl)ccc(c1cc2Cl)Cl,C14H7Cl3,xtb2,281.569,7,14,3,-47.218117309776,-47.04346738568,0.00018711168,-47.099254733098,5.910013358231,5.792016115255,0.00102282555,5.48706067694,0.159839060246,-10.6061,-7.8159,2.790198967228,1.449,184.473634,-0.124 -0.542 -0.125,0.01334731,0.01149898,0.006283142
2-0192,pubchemPCH,KWGAEBHFLZUIRW-UHFFFAOYSA-N,c1ccc2c(c1)c1c(Cl)ccc(c1cc2Cl)Cl,C14H7Cl3,r2scan,281.569,7,14,3,-1918.136728991201,-1917.9579520423,0.0001817532,-1918.0121417591,4.662822104295,4.5406966867,0.001099388,4.2129140408,0.164458369,-5.8233,-2.5523,3.271,1.49502,209.44203,-0.12320 -0.55585 -0.14767,0.013128,0.011336,0.006202
2-0192,pubchemPCH,KWGAEBHFLZUIRW-UHFFFAOYSA-N,c1ccc2c(c1)c1c(Cl)ccc(c1cc2Cl)Cl,C14H7Cl3,d4tzvp,281.569,7,14,3,-1918.820512171346,-1918.6417352224,0.0001817532,-1918.6959249392,4.609035602264,4.4869101846,0.001099388,4.1591275394,0.164458369,-8.5113,-0.0803,8.431,1.50215,203.83897,-0.06171 -0.56857 -0.14893,0.013128,0.011336,0.006202
2-0193,pubchemPCH,KWRKTRWNQPCAIF-UHFFFAOYSA-N,c1c(Cl)cc2c(c1)c1ccc(cc1c(c2Cl)Cl)Cl,C14H6Cl4,xtb2,316.014,6,14,4,-51.274728091629,-51.108389989612,0.00019681007,-51.167068911848,5.877581769059,5.767896348162,0.001030031556,5.460792439004,0.150076166319,-10.8441,-8.0588,2.785292513793,2.639,196.911172,-0.000 -1.038 -0.000,0.01615478,0.005660014,0.00419148
2-0193,pubchemPCH,KWRKTRWNQPCAIF-UHFFFAOYSA-N,c1c(Cl)cc2c(c1)c1ccc(cc1c(c2Cl)Cl)Cl,C14H6Cl4,r2scan,316.014,6,14,4,-2377.727065390405,-2377.5575509299,0.0001925188,-2377.614950424,4.636436900731,4.5235739715,0.0011055342,4.1939588372,0.1534577965,-6.1341,-2.7191,3.415,2.45679,232.2199,-0.00006 -0.96656 0.00001,0.015925,0.005608,0.004147
2-0193,pubchemPCH,KWRKTRWNQPCAIF-UHFFFAOYSA-N,c1c(Cl)cc2c(c1)c1ccc(cc1c(c2Cl)Cl)Cl,C14H6Cl4,d4tzvp,316.014,6,14,4,-2378.446881903356,-2378.2773674429,0.0001925188,-2378.334766937,4.588129372034,4.4752664429,0.0011055342,4.1456513092,0.1534577965,-8.8474,-0.234,8.6134,2.50388,222.94939,-0.00007 -0.98508 0.00000,0.015925,0.005608,0.004147
2-0194,pubchemPCH,KZHSROYDVSDRAW-UHFFFAOYSA-N,c1ccc2c(c1)c1cc(Cl)cc(c1cc2Cl)Cl,C14H7Cl3,xtb2,281.569,7,14,3,-47.226017692865,-47.051409665711,0.000187993556,-47.107459944522,5.91791374132,5.799958395286,0.001021943674,5.495265888364,0.159691467963,-10.6257,-7.8229,2.802769112288,2.274,184.502283,-0.591 -0.672 0.000,0.01594116,0.008598627,0.005585708
2-0194,pubchemPCH,KZHSROYDVSDRAW-UHFFFAOYSA-N,c1ccc2c(c1)c1cc(Cl)cc(c1cc2Cl)Cl,C14H7Cl3,r2scan,281.569,7,14,3,-1918.149183842698,-1917.9707412077,0.0001835739,-1918.0254737706,4.675276955792,4.5534858521,0.0010975673,4.2262460523,0.1639309203,-5.851,-2.514,3.337,2.17933,212.68819,-0.56824 -0.64206 0.00002,0.015702,0.00852,0.005523
2-0194,pubchemPCH,KZHSROYDVSDRAW-UHFFFAOYSA-N,c1ccc2c(c1)c1cc(Cl)cc(c1cc2Cl)Cl,C14H7Cl3,d4tzvp,281.569,7,14,3,-1918.832693402553,-1918.6542507676,0.0001835739,-1918.7089833305,4.621216833471,4.4994257298,0.0010975673,4.1721859307,0.1639309203,-8.5347,-0.0313,8.5034,2.1412,206.22214,-0.54092 -0.64578 0.00002,0.015702,0.00852,0.005523
2-0195,pubchemPCH,LAHULXVOOREITA-UHFFFAOYSA-N,c1ccc2c(c1)cc(c1c2cc(Cl)cc1)Cl,C14H8Cl2,xtb2,247.124,8,14,2,-43.176610428961,-42.993780458197,0.000177909618,-43.046824210731,5.957548848441,5.831371558797,0.001015123216,5.528712571259,0.169268650793,-10.5262,-7.6037,2.922531276285,2.032,172.130279,-0.773 -0.206 -0.000,0.01781022,0.01156969,0.007013591
2-0195,pubchemPCH,LAHULXVOOREITA-UHFFFAOYSA-N,c1ccc2c(c1)cc(c1c2cc(Cl)cc1)Cl,C14H8Cl2,r2scan,247.124,8,14,2,-1458.569520362052,-1458.3827385384,0.0001732972,-1458.4344071078,4.712335077914,4.5822047856,0.0010909322,4.256943258,0.1735851289,-5.7624,-2.3201,3.4423,1.85579,196.75877,-0.70967 -0.17155 -0.00000,0.017578,0.011462,0.006938
2-0195,pubchemPCH,LAHULXVOOREITA-UHFFFAOYSA-N,c1ccc2c(c1)cc(c1c2cc(Cl)cc1)Cl,C14H8Cl2,d4tzvp,247.124,8,14,2,-1459.217378565006,-1459.0305967413,0.0001732972,-1459.0822653107,4.653177958164,4.5230476657,0.0010909322,4.1977861389,0.1735851289,-8.444,0.1851,8.6291,1.92309,191.73672,-0.73932 -0.16072 0.00000,0.017578,0.011462,0.006938
2-0196,pubchemPCH,LBCOXKFWBDTJTF-UHFFFAOYSA-N,Clc1ccc2c(c1Cl)c(Cl)c(cc2Cl)Cl,C10H3Cl5,xtb2,300.399,3,10,5,-45.713258720885,-45.603563405829,0.000187918852,-45.659591411581,4.187221040622,4.120015236406,0.000760138608,3.893379910093,0.095054418816,-10.8333,-8.3208,2.512494213139,1.979,169.751386,-0.024 0.778 -0.000,0.01497068,0.009688792,0.005882032
2-0196,pubchemPCH,LBCOXKFWBDTJTF-UHFFFAOYSA-N,Clc1ccc2c(c1Cl)c(Cl)c(cc2Cl)Cl,C10H3Cl5,r2scan,300.399,3,10,5,-2683.674011290229,-2683.5617657592,0.0001823767,-2683.6161413792,3.290068918229,3.2203120356,0.0008184595,2.9762882265,0.0980916903,-6.021,-2.9277,3.0933,2.03588,187.80423,-0.03864 0.79964 -0.02483,0.014786,0.009454,0.005823
2-0196,pubchemPCH,LBCOXKFWBDTJTF-UHFFFAOYSA-N,Clc1ccc2c(c1Cl)c(Cl)c(cc2Cl)Cl,C10H3Cl5,d4tzvp,300.399,3,10,5,-2684.270070604187,-2684.1578250732005,0.0001823767,-2684.2122006932004,3.265344996437,3.195588114,0.0008184595,2.9515643052,0.0980916903,-8.7816,-0.4556,8.326,2.17248,181.41953,-0.05702 0.85239 -0.02631,0.014786,0.009454,0.005823
2-0197,pubchemPCH,LBULKMUGLZJNIE-UHFFFAOYSA-N,c1c(Cl)cc2-c3c4c(-c2c1)cccc4cc1c3cccc1,C20H11Cl,xtb2,286.761,11,20,1,-53.001519223031,-52.749904261162,0.000194103309,-52.807776162883,8.324756257474,8.148678203765,0.001384119947,7.736002840685,0.235516629243,-10.0829,-8.2163,1.866588533518,2.807,217.154972,0.810 0.751 -0.000,0.01354365,0.007955545,0.005011682
2-0197,pubchemPCH,LBULKMUGLZJNIE-UHFFFAOYSA-N,c1c(Cl)cc2-c3c4c(-c2c1)cccc4cc1c3cccc1,C20H11Cl,r2scan,286.761,11,20,1,-1228.78990178702,-1228.5329970467,0.000189241,-1228.5894192566,6.561598210672,6.3802288455,0.0014856176,5.9372918393,0.2411983062,-5.3064,-3.1443,2.1621,2.73486,270.7287,0.79599 0.72394 0.00000,0.013448,0.007871,0.004965
2-0197,pubchemPCH,LBULKMUGLZJNIE-UHFFFAOYSA-N,c1c(Cl)cc2-c3c4c(-c2c1)cccc4cc1c3cccc1,C20H11Cl,d4tzvp,286.761,11,20,1,-1229.631761272433,-1229.3748565321,0.000189241,-1229.431278742,6.467911826453,6.2865424611,0.0014856176,5.843605456,0.2411983062,-7.7471,-0.864,6.8831,2.69386,262.61174,0.75069 0.74812 -0.00000,0.013448,0.007871,0.004965
2-0198,pubchemPCH,LCBLXDMTTCZXJI-UHFFFAOYSA-N,c1cc(Cl)c2c(c1Cl)c(Cl)c1c(c2Cl)c(Cl)ccc1Cl,C14H4Cl6,xtb2,384.904,4,14,6,-59.332121343817,-59.18310723532,0.000214630184,-59.247099224662,5.756890279197,5.66452885182,0.001046020234,5.352657918446,0.130307535624,-10.4387,-8.7567,1.682004200731,0.24,222.075247,-0.000 -0.000 -0.094,0.007937079,0.007482509,0.004023105
2-0198,pubchemPCH,LCBLXDMTTCZXJI-UHFFFAOYSA-N,c1cc(Cl)c2c(c1Cl)c(Cl)c1c(c2Cl)c(Cl)ccc1Cl,C14H4Cl6,r2scan,384.904,4,14,6,-3296.817467537472,-3296.6651813573,0.0002093944,-3296.7276122936,4.493395842262,4.3977611933,0.0011224822,4.0630929698,0.1341383344,-5.534,-3.6591,1.8749,0.23866,259.54425,-0.00002 0.00032 -0.09390,0.007745,0.007376,0.004021
2-0198,pubchemPCH,LCBLXDMTTCZXJI-UHFFFAOYSA-N,c1cc(Cl)c2c(c1Cl)c(Cl)c1c(c2Cl)c(Cl)ccc1Cl,C14H4Cl6,d4tzvp,384.904,4,14,6,-3297.603078803179,-3297.450792623,0.0002093944,-3297.5132235593,4.449774347377,4.3541396986,0.0011224822,4.0194714755,0.1341383344,-8.05,-1.3844,6.6656,0.25487,251.58047,-0.00002 0.00025 -0.10027,0.007745,0.007376,0.004021
2-0199,pubchemPCH,LCDLIGZCKSYKQT-UHFFFAOYSA-N,c1ccc2c(c1)ccc1c2ccc2c1ccc1c2c(Cl)ccc1,C22H13Cl,xtb2,312.799,13,22,1,-58.307948180637,-58.02055787121,0.000206415484,-58.082100647831,9.257626944478,9.055215656731,0.001561090078,8.589776648961,0.269466903898,-10.097,-7.4924,2.604634891186,1.633,239.874255,0.017 0.618 0.173,0.02075269,0.004545854,0.003775438
2-0199,pubchemPCH,LCDLIGZCKSYKQT-UHFFFAOYSA-N,c1ccc2c(c1)ccc1c2ccc2c1ccc1c2c(Cl)ccc1,C22H13Cl,r2scan,312.799,13,22,1,-1306.197326105495,-1305.9034740007,0.0002002337,-1305.96317367,7.310046983241,7.1011721755,0.0016753411,6.6016690835,0.2765169741,-5.3665,-2.2979,3.0686,1.48516,301.29201,-0.02056 0.55562 0.17961,0.020535,0.004476,0.003719
2-0199,pubchemPCH,LCDLIGZCKSYKQT-UHFFFAOYSA-N,c1ccc2c(c1)ccc1c2ccc2c1ccc1c2c(Cl)ccc1,C22H13Cl,d4tzvp,312.799,13,22,1,-1307.128788838013,-1306.8349367332,0.0002002337,-1306.8946364025,7.209258421787,7.0003836138,0.0016753411,6.5008805231,0.2765169741,-7.9095,0.1445,8.054,1.53924,289.51088,-0.06354 0.57348 0.18385,0.020535,0.004476,0.003719
2-0200,pubchemPCH,LCEAAKRGHIUDPB-UHFFFAOYSA-N,c1c(Cl)cc2c(c1)c1ccc(cc1c1c2cc(Cl)c2c1c1cc(Cl)ccc1cc2)Cl,C26H12Cl4,xtb2,466.194,12,26,4,-80.061584649131,-79.750845629255,0.000256617254,-79.827356063617,10.783985286565,10.572388458649,0.001857290058,10.018637426647,0.285977020353,-10.5169,-7.9523,2.564591174407,0.441,316.43783,0.170 0.002 -0.035,0.0050842,0.003119888,0.002275025
2-0200,pubchemPCH,LCEAAKRGHIUDPB-UHFFFAOYSA-N,c1c(Cl)cc2c(c1)c1ccc(cc1c1c2cc(Cl)c2c1c1cc(Cl)ccc1cc2)Cl,C26H12Cl4,r2scan,466.194,12,26,4,-2838.551965143304,-2838.233977075,0.0002462189,-2838.3073872312,8.491113492304,8.2722656038,0.0019942199,7.6776887366,0.2940847364,-5.7224,-2.8104,2.912,0.63522,393.63417,0.24162 0.05690 -0.02894,0.005003,0.003074,0.002244
2-0200,pubchemPCH,LCEAAKRGHIUDPB-UHFFFAOYSA-N,c1c(Cl)cc2c(c1)c1ccc(cc1c1c2cc(Cl)c2c1c1cc(Cl)ccc1cc2)Cl,C26H12Cl4,d4tzvp,466.194,12,26,4,-2839.748519517693,-2839.4305314494,0.0002462189,-2839.5039416056,8.385858328935,8.1670104404,0.0019942199,7.5724335744,0.2940847364,-8.2624,-0.4103,7.8521,0.53154,373.66467,0.19682 0.05554 -0.04370,0.005003,0.003074,0.002244
2-0201,pubchemPCH,LFHZGKGQPQLAPU-UHFFFAOYSA-N,c1ccc2c(c1)cc1c(c2)c(Cl)c2c(c1)cccc2,C18H11Cl,xtb2,262.739,11,18,1,-48.705471775773,-48.467019707839,0.000186742856,-48.522697090464,7.615301552946,7.447665336412,0.001285074144,7.064520479636,0.22333398654,-9.7075,-8.1255,1.581957784701,1.686,199.947613,-0.125 -0.651 -0.000,0.02839581,0.00703451,0.005637844
2-0201,pubchemPCH,LFHZGKGQPQLAPU-UHFFFAOYSA-N,c1ccc2c(c1)cc1c(c2)c(Cl)c2c(c1)cccc2,C18H11Cl,r2scan,262.739,11,18,1,-1152.580711480736,-1152.3368481397,0.0001814048,-1152.390933978,6.016840078924,5.8437911521,0.0013800414,5.4323316941,0.2292492994,-4.8337,-3.0831,1.7506,1.60282,259.04325,-0.10911 -0.62107 -0.00003,0.027864,0.006986,0.005586
2-0201,pubchemPCH,LFHZGKGQPQLAPU-UHFFFAOYSA-N,c1ccc2c(c1)cc1c(c2)c(Cl)c2c(c1)cccc2,C18H11Cl,d4tzvp,262.739,11,18,1,-1153.345725555435,-1153.1018622143995,0.0001814048,-1153.1559480526998,5.927498025021,5.754449098,0.0013800414,5.3429896411,0.2292492994,-7.2209,-0.8182,6.4027,1.66162,252.13195,-0.10244 -0.64564 -0.00003,0.027864,0.006986,0.005586
2-0202,pubchemPCH,LGJCQLDCXDKXNR-UHFFFAOYSA-N,c1ccc2c(c1)c1ccccc1c1c2cc(Cl)cc1Cl,C18H10Cl2,xtb2,297.184,10,18,2,-52.763229810626,-52.532098741729,0.00019778341,-52.591067865407,7.584017216774,7.423701999277,0.001290937986,7.038808837893,0.214692198045,-10.5374,-7.4295,3.107960189709,2.651,212.183378,0.998 -0.275 -0.126,0.01228099,0.008739615,0.005256903
2-0202,pubchemPCH,LGJCQLDCXDKXNR-UHFFFAOYSA-N,c1ccc2c(c1)c1ccccc1c1c2cc(Cl)cc1Cl,C18H10Cl2,r2scan,297.184,10,18,2,-1612.166437160131,-1611.930079624,0.0001921249,-1611.9873616631,5.985844155551,5.8203010336,0.0013862331,5.4069955107,0.220436458,-5.8373,-2.2628,3.5745,2.39916,245.78956,0.90337 -0.23895 -0.13320,0.012135,0.00861,0.005189
2-0202,pubchemPCH,LGJCQLDCXDKXNR-UHFFFAOYSA-N,c1ccc2c(c1)c1ccccc1c1c2cc(Cl)cc1Cl,C18H10Cl2,d4tzvp,297.184,10,18,2,-1612.97652137382,-1612.7401638377,0.0001921249,-1612.7974458768,5.911017881166,5.7454747591,0.0013862331,5.3321692372,0.220436458,-8.5113,0.2409,8.7522,2.36862,238.25255,0.88836 -0.24590 -0.13686,0.012135,0.00861,0.005189
2-0203,pubchemPCH,LITCKAVLJAKHOE-UHFFFAOYSA-N,c1cc(Cl)c2c(c1Cl)c(Cl)ccc2Cl,C10H4Cl4,xtb2,265.954,4,10,4,-41.66080447114,-41.542808061739,0.0001741056,-41.594717646251,4.223809161902,4.148302263341,0.000757047464,3.922588561449,0.104674408963,-10.6242,-8.1249,2.499343089141,0.0,157.116993,0.000 0.000 -0.000,0.02397744,0.01122714,0.007646678
2-0203,pubchemPCH,LITCKAVLJAKHOE-UHFFFAOYSA-N,c1cc(Cl)c2c(c1Cl)c(Cl)ccc2Cl,C10H4Cl4,r2scan,265.954,4,10,4,-2224.085235981552,-2223.9646058653,0.0001703506,-2224.0153958914,3.31801521232,3.2398737445,0.0008135738,2.9973066072,0.1077299373,-5.7854,-2.8597,2.9257,0.00109,170.79704,0.00043 -0.00000 0.00000,0.022738,0.011051,0.007736
2-0203,pubchemPCH,LITCKAVLJAKHOE-UHFFFAOYSA-N,c1cc(Cl)c2c(c1Cl)c(Cl)ccc2Cl,C10H4Cl4,d4tzvp,265.954,4,10,4,-2224.644502240388,-2224.5238721241003,0.0001703506,-2224.5746621502003,3.287052594878,3.2089111271,0.0008135738,2.9663439902,0.1077299373,-8.5264,-0.3858,8.1406,0.00125,166.37313,0.00049 0.00001 0.00000,0.022738,0.011051,0.007736
2-0204,pubchemPCH,LLCAMHVQWQVBAI-UHFFFAOYSA-N,Clc1cc(Cl)c2c(c1Cl)c(Cl)c1c(c2Cl)c(Cl)cc(c1Cl)Cl,C14H2Cl8,xtb2,453.794,2,14,8,-67.422843925112,-67.290466598051,0.000237027091,-67.361136225277,5.669528118442,5.593803472501,0.001057432119,5.278530085689,0.110950418967,-10.6669,-9.0465,1.620386013852,0.934,247.374913,-0.000 -0.366 -0.027,0.007025286,0.004256732,0.002738911
2-0204,pubchemPCH,LLCAMHVQWQVBAI-UHFFFAOYSA-N,Clc1cc(Cl)c2c(c1Cl)c(Cl)c1c(c2Cl)c(Cl)cc(c1Cl)Cl,C14H2Cl8,r2scan,453.794,2,14,8,-4215.969927520254,-4215.8345298307,0.0002284478,-4215.9026415403,4.412412619507,4.3336664611,0.0011372524,3.9945944795,0.1146719392,-5.7274,-3.8619,1.8655,0.86651,297.62125,0.00000 -0.33987 -0.02651,0.006944,0.004185,0.002737
2-0204,pubchemPCH,LLCAMHVQWQVBAI-UHFFFAOYSA-N,Clc1cc(Cl)c2c(c1Cl)c(Cl)c1c(c2Cl)c(Cl)cc(c1Cl)Cl,C14H2Cl8,d4tzvp,453.794,2,14,8,-4216.828059854967,-4216.6926621654,0.0002284478,-4216.760773874999,4.380203474685,4.3014573166,0.0011372524,3.9623853352,0.1146719392,-8.2614,-1.6155,6.6459,0.90258,284.48836,-0.00000 -0.35450 -0.02046,0.006944,0.004185,0.002737
2-0205,pubchemPCH,LLQXYCYKGIZPGA-UHFFFAOYSA-N,c1ccc2c(c1)c1ccccc1c1c2c2cccc(c2c2c1cccc2)Cl,C26H15Cl,xtb2,362.859,15,26,1,-67.89706472332,-67.561255909346,0.000223902873,-67.628012550799,10.886592473829,10.649925851815,0.001839291251,10.101541163887,0.315281581129,-9.9836,-7.526,2.45764437137,1.994,279.818852,-0.758 0.167 -0.116,0.009223557,0.005184576,0.003786532
2-0205,pubchemPCH,LLQXYCYKGIZPGA-UHFFFAOYSA-N,c1ccc2c(c1)c1ccccc1c1c2c2cccc(c2c2c1cccc2)Cl,C26H15Cl,r2scan,362.859,15,26,1,-1459.79528674377,-1459.4515596899,0.0002155188,-1459.5158166217,8.584599901074,8.3400130271,0.0019741846,7.7514097326,0.32397924,-5.2235,-2.4072,2.8163,1.82778,338.75778,-0.68518 0.17394 -0.13179,0.009126,0.005112,0.003733
2-0205,pubchemPCH,LLQXYCYKGIZPGA-UHFFFAOYSA-N,c1ccc2c(c1)c1ccccc1c1c2c2cccc(c2c2c1cccc2)Cl,C26H15Cl,d4tzvp,362.859,15,26,1,-1460.888081664277,-1460.5443546104,0.0002155188,-1460.6086115422,8.467248362239,8.222661488,0.0019741846,7.634058195,0.32397924,-7.6792,-0.0172,7.662,1.82298,326.19576,-0.67748 0.20078 -0.12281,0.009126,0.005112,0.003733
2-0206,pubchemPCH,LMIYHCVZBZIEIN-UHFFFAOYSA-N,c1cc2c(Cl)ccc3c2c(c1)c1ccc(c2c1c3ccc2)Cl,C20H10Cl2,xtb2,321.206,10,20,2,-57.072909262724,-56.828740143617,0.000202663767,-56.889164345648,8.307103926142,8.138471715195,0.001392463885,7.723308606764,0.226820710202,-9.9588,-8.1774,1.781416144997,0.0,229.466399,-0.000 -0.000 0.000,0.02023957,0.004810105,0.003886456
2-0206,pubchemPCH,LMIYHCVZBZIEIN-UHFFFAOYSA-N,c1cc2c(Cl)ccc3c2c(c1)c1ccc(c2c1c3ccc2)Cl,C20H10Cl2,r2scan,321.206,10,20,2,-1688.391439828178,-1688.1426338304,0.0001991039,-1688.2019966605,6.546414649062,6.3731440264,0.0014926665,5.9281053747,0.2317300795,-5.0559,-3.0753,1.9806,0.05334,290.29785,-0.00032 0.00015 -0.02098,0.020057,0.004751,0.003848
2-0206,pubchemPCH,LMIYHCVZBZIEIN-UHFFFAOYSA-N,c1cc2c(Cl)ccc3c2c(c1)c1ccc(c2c1c3ccc2)Cl,C20H10Cl2,d4tzvp,321.206,10,20,2,-1689.269581877532,-1689.0207758797,0.0001991039,-1689.0801387098002,6.458456469312,6.2851858465,0.0014926665,5.8401471958,0.2317300795,-7.4322,-0.8332,6.599,0.05424,277.34198,0.00001 0.00051 -0.02133,0.020057,0.004751,0.003848
2-0207,pubchemPCH,LNCWYHWLFIWPGX-UHFFFAOYSA-N,c1ccc2c(c1)c1c3ccc(cc3c3c(c1c1c2cc(Cl)cc1)cccc3)Cl,C26H14Cl2,xtb2,397.304,14,26,2,-71.955968213397,-71.62836276481,0.000233238919,-71.697902948586,10.856453592881,10.627990336254,0.001846859601,10.077349144988,0.305665389039,-10.1343,-7.7223,2.412026178411,1.258,291.935437,0.000 0.000 0.495,0.008041059,0.003413662,0.002690836
2-0207,pubchemPCH,LNCWYHWLFIWPGX-UHFFFAOYSA-N,c1ccc2c(c1)c1c3ccc(cc3c3c(c1c1c2cc(Cl)cc1)cccc3)Cl,C26H14Cl2,r2scan,397.304,14,26,2,-1919.388136956273,-1919.0528257315,0.0002243649,-1919.1197201343,8.560728510809,8.3245574659,0.0019822503,7.7335493767,0.3141676783,-5.3412,-2.5417,2.7995,1.23404,366.45737,0.00001 -0.00000 0.48550,0.00798,0.003373,0.002653
2-0207,pubchemPCH,LNCWYHWLFIWPGX-UHFFFAOYSA-N,c1ccc2c(c1)c1c3ccc(cc3c3c(c1c1c2cc(Cl)cc1)cccc3)Cl,C26H14Cl2,d4tzvp,397.304,14,26,2,-1920.515115418864,-1920.1798041941,0.0002243649,-1920.2466985969,8.447006154586,8.2108351095,0.0019822503,7.6198270217,0.3141676783,-7.8019,-0.171,7.6309,1.24553,348.88354,0.00000 0.00001 0.49002,0.00798,0.003373,0.002653
2-0208,pubchemPCH,LNLUHTGHIVKPOO-UHFFFAOYSA-N,c1ccc2c(c1)c(Cl)c1c(c2Cl)ccc2c1cccc2,C18H10Cl2,xtb2,297.184,10,18,2,-52.757979034497,-52.527120671188,0.000196270472,-52.585638712375,7.578766440645,7.418723928736,0.001292450924,7.033379684861,0.214509783018,-10.1127,-7.9269,2.185804346042,0.521,212.185251,0.149 0.086 0.112,0.01636967,0.007938926,0.005430461
2-0208,pubchemPCH,LNLUHTGHIVKPOO-UHFFFAOYSA-N,c1ccc2c(c1)c(Cl)c1c(c2Cl)ccc2c1cccc2,C18H10Cl2,r2scan,297.184,10,18,2,-1612.159370498145,-1611.9230404835,0.0001900247,-1611.9796963453,5.978777493565,5.8132618931,0.0013883333,5.3993301929,0.2205658812,-5.3151,-2.8092,2.5059,0.59104,258.3088,0.13920 0.11446 0.14694,0.016101,0.007836,0.005368
2-0208,pubchemPCH,LNLUHTGHIVKPOO-UHFFFAOYSA-N,c1ccc2c(c1)c(Cl)c1c(c2Cl)ccc2c1cccc2,C18H10Cl2,d4tzvp,297.184,10,18,2,-1612.966085341844,-1612.7297553272,0.0001900247,-1612.786411189,5.90058184919,5.7350662486,0.0013883333,5.3211345494,0.2205658812,-7.8686,-0.4538,7.4148,0.54115,249.91823,0.11621 0.10786 0.14209,0.016101,0.007836,0.005368
2-0209,pubchemPCH,LOAXVSROPSZRPD-UHFFFAOYSA-N,c1c2c(cc3c1cc1c(c3)c(Cl)c(c(c1Cl)Cl)Cl)cc1c(c2)c(Cl)c(c(c1Cl)Cl)Cl,C22H6Cl8,xtb2,553.914,6,22,8,-86.630252298968,-86.401736468235,0.000276415215,-86.484149664511,8.956634465634,8.813097656581,0.001609421119,8.333248748839,0.20100200652,-10.332,-9.1722,1.159794170394,0.001,327.052249,0.000 0.000 0.000,0.008185647,0.001080018,0.0009541295
2-0209,pubchemPCH,LOAXVSROPSZRPD-UHFFFAOYSA-N,c1c2c(cc3c1cc1c(c3)c(Cl)c(c(c1Cl)Cl)Cl)cc1c(c2)c(Cl)c(c(c1Cl)Cl)Cl,C22H6Cl8,r2scan,553.914,6,22,8,-4523.226743304664,-4522.9934132616,0.0002637703,-4523.0720563664,7.022412963033,6.8740602168,0.0017301871,6.3582047004,0.2066696785,-5.2096,-3.968,1.2416,0.0,485.21476,-0.00000 0.00000 -0.00000,0.008043,0.001076,0.000949
2-0209,pubchemPCH,LOAXVSROPSZRPD-UHFFFAOYSA-N,c1c2c(cc3c1cc1c(c3)c(Cl)c(c(c1Cl)Cl)Cl)cc1c(c2)c(Cl)c(c(c1Cl)Cl)Cl,C22H6Cl8,d4tzvp,553.914,6,22,8,-4524.399869421702,-4524.1665393786,0.0002637703,-4524.2451824834,6.949407269795,6.8010545238,0.0017301871,6.285199008,0.2066696785,-7.5065,-1.8523,5.6542,0.00011,448.67913,0.00003 0.00003 -0.00000,0.008043,0.001076,0.000949