id,subset,key,smiles,formula,level,mwt,nH,nC,nCl,E,H,S,G,dE,dH,dS,dG,zpe,homo,lumo,gap,Mu,alpha,tMu,rotA,rotB,rotC
2-0458,pubchemPCH,ZJYQWRAURUNIIW-UHFFFAOYSA-N,c1ccc2c(c1)cc1c(c2Cl)cccc1Cl,C14H8Cl2,r2scan,247.124,8,14,2,-1458.559624752401,-1458.3728297859,0.000172172,-1458.4241628696,4.702439468263,4.5722960331,0.0010920574,4.2466990198,0.173684642,-5.3198,-2.9205,2.3993,0.5745,200.3955,-0.22490 -0.02247 -0.00000,0.021518,0.011637,0.007552
2-0458,pubchemPCH,ZJYQWRAURUNIIW-UHFFFAOYSA-N,c1ccc2c(c1)cc1c(c2Cl)cccc1Cl,C14H8Cl2,d4tzvp,247.124,8,14,2,-1459.204733671284,-1459.0179387048,0.000172172,-1459.0692717885,4.640533064442,4.5103896292,0.0010920574,4.1847926167,0.173684642,-7.8645,-0.538,7.3265,0.52452,196.62956,-0.20467 -0.02634 -0.00000,0.021518,0.011637,0.007552
2-0459,pubchemPCH,ZKIHUUILVGJSST-UHFFFAOYSA-N,Clc1c(Cl)c2cc(Cl)c3c4c2c(c1Cl)c(Cl)c(c4c(c(c3Cl)Cl)Cl)Cl,C16HCl9,xtb2,512.261,1,16,9,-75.789813901246,-75.652158432376,0.000253313743,-75.727683924995,6.360862980821,6.284581249831,0.001164456119,5.937398657351,0.114000690982,-10.8505,-9.0275,1.823040887261,0.826,277.520132,0.086 0.313 0.017,0.005435527,0.003345881,0.002121042
2-0459,pubchemPCH,ZKIHUUILVGJSST-UHFFFAOYSA-N,Clc1c(Cl)c2cc(Cl)c3c4c2c(c1Cl)c(Cl)c(c4c(c(c3Cl)Cl)Cl)Cl,C16HCl9,r2scan,512.261,1,16,9,-4751.78494248892,-4751.6444001033,0.000242012,-4751.7165559846,4.94627381087,4.8671039173,0.0012540124,4.4932199219,0.1177143383,-5.9471,-3.5684,2.3787,0.72127,344.08888,0.09286 0.26814 0.00134,0.00527,0.003336,0.002177
2-0459,pubchemPCH,ZKIHUUILVGJSST-UHFFFAOYSA-N,Clc1c(Cl)c2cc(Cl)c3c4c2c(c1Cl)c(Cl)c(c4c(c(c3Cl)Cl)Cl)Cl,C16HCl9,d4tzvp,512.261,1,16,9,-4752.756917280128,-4752.6163748945,0.000242012,-4752.6885307758,4.91616302204,4.8369931289,0.0012540124,4.4631091336,0.1177143383,-8.4796,-1.3645,7.1151,0.79727,324.53801,0.12873 0.28584 -0.01046,0.00527,0.003336,0.002177
2-0460,pubchemPCH,ZKVQSKYMUBSYOE-UHFFFAOYSA-N,c1c(Cl)cc(c2c1cc1c(c2)cccc1)Cl,C14H8Cl2,xtb2,247.124,8,14,2,-43.168685380523,-42.986287888319,0.000177378471,-43.039173279317,5.949623800003,5.823878988919,0.001015654363,5.521061639845,0.168834595762,-10.25,-8.0761,2.173924691587,2.688,172.223786,-1.014 -0.300 0.000,0.02644694,0.008602617,0.006491177
2-0460,pubchemPCH,ZKVQSKYMUBSYOE-UHFFFAOYSA-N,c1c(Cl)cc(c2c1cc1c(c2)cccc1)Cl,C14H8Cl2,r2scan,247.124,8,14,2,-1458.561388659282,-1458.3749029088,0.0001727561,-1458.4264101494,4.704203375144,4.574369156,0.0010914733,4.2489462996,0.1733563551,-5.3681,-2.8944,2.4737,2.46844,206.67415,-0.93622 -0.25808 0.00002,0.02601,0.008533,0.006425
2-0460,pubchemPCH,ZKVQSKYMUBSYOE-UHFFFAOYSA-N,c1c(Cl)cc(c2c1cc1c(c2)cccc1)Cl,C14H8Cl2,d4tzvp,247.124,8,14,2,-1459.205519444289,-1459.0190336938,0.0001727561,-1459.0705409344,4.641318837447,4.5114846182,0.0010914733,4.1860617626,0.1733563551,-7.9208,-0.4851,7.4357,2.4804,201.09818,-0.93682 -0.27320 0.00001,0.02601,0.008533,0.006425
2-0461,pubchemPCH,ZPFQKGPUVICJIX-UHFFFAOYSA-N,Clc1ccc2-c3c(-c2c1)cc(c(c3)Cl)Cl,C12H5Cl3,xtb2,255.531,5,12,3,-41.845170704865,-41.706780012401,0.000177615836,-41.759736173803,4.910625023922,4.819444899058,0.000843039088,4.568092794317,0.125036913804,-10.4926,-8.0488,2.443823431727,1.563,159.052468,-0.500 0.358 0.000,0.04367553,0.00590699,0.005203264
2-0461,pubchemPCH,ZPFQKGPUVICJIX-UHFFFAOYSA-N,Clc1ccc2-c3c(-c2c1)cc(c(c3)Cl)Cl,C12H5Cl3,r2scan,255.531,5,12,3,-1840.65671341943,-1840.5158207413,0.0001739471,-1840.5676830643,3.84178207843,3.7480990097,0.0009064779,3.4778325152,0.1278142999,-5.5427,-2.7409,2.8018,1.47516,194.53757,-0.45415 0.36134 0.00003,0.042635,0.005836,0.005133
2-0461,pubchemPCH,ZPFQKGPUVICJIX-UHFFFAOYSA-N,Clc1ccc2-c3c(-c2c1)cc(c(c3)Cl)Cl,C12H5Cl3,d4tzvp,255.531,5,12,3,-1841.254279423772,-1841.1133867457,0.0001739471,-1841.1652490687,3.798483824936,3.7048007563,0.0009064779,3.4345342623,0.1278142999,-8.2628,-0.1241,8.1387,1.54961,185.11051,-0.47933 0.37672 0.00004,0.042635,0.005836,0.005133
2-0462,pubchemPCH,ZPQOPVIELGIULI-UHFFFAOYSA-N,c1c(Cl)cccc1Cl,C6H4Cl2,xtb2,147.004,4,6,2,-23.982835825613,-23.89629492826,0.00013253722,-23.935810900342,2.684076271757,2.625861714964,0.00046911849,2.485994036954,0.078634901889,-11.1077,-6.944,4.163639614893,1.677,92.260046,-0.000 0.660 -0.000,0.09506264,0.02864039,0.02200941
2-0462,pubchemPCH,ZPQOPVIELGIULI-UHFFFAOYSA-N,c1c(Cl)cccc1Cl,C6H4Cl2,r2scan,147.004,4,6,2,-1151.34739052533,-1151.2588176129,0.0001310238,-1151.297882364,2.137020682076,2.0767735353,0.0005049484,1.9262231194,0.0809161601,-6.4998,-1.6358,4.864,1.68782,91.10804,-0.00003 0.66403 -0.00009,0.093797,0.028243,0.021707
2-0462,pubchemPCH,ZPQOPVIELGIULI-UHFFFAOYSA-N,c1c(Cl)cccc1Cl,C6H4Cl2,d4tzvp,147.004,4,6,2,-1151.676347062819,-1151.5877741504,0.0001310238,-1151.6268389015002,2.114752227601,2.0545050808,0.0005049484,1.9039546653,0.0809161601,-9.5291,1.1252,10.6543,1.71342,90.45082,-0.00003 0.67410 -0.00009,0.093797,0.028243,0.021707
2-0463,pubchemPCH,ZPUUGNBIWHBXBM-UHFFFAOYSA-N,c1cc(Cl)c(c2c1c(Cl)c(cc2)Cl)Cl,C10H4Cl4,xtb2,265.954,4,10,4,-41.673653573697,-41.555544794343,0.000175918168,-41.607994796113,4.236658264459,4.161038995945,0.000755234896,3.935865711311,0.104766317311,-10.8211,-8.1214,2.699674349683,0.0,157.114764,-0.000 -0.000 -0.000,0.03101954,0.008246682,0.006514716
2-0463,pubchemPCH,ZPUUGNBIWHBXBM-UHFFFAOYSA-N,c1cc(Cl)c(c2c1c(Cl)c(cc2)Cl)Cl,C10H4Cl4,r2scan,265.954,4,10,4,-2224.111987862494,-2223.9911564386,0.0001705484,-2224.0420054411,3.344767093262,3.2664243178,0.000813376,3.0239161569,0.1079311894,-6.0551,-2.7435,3.3116,4E-05,172.7651,0.00001 0.00001 0.00000,0.03036,0.008158,0.00643
2-0463,pubchemPCH,ZPUUGNBIWHBXBM-UHFFFAOYSA-N,c1cc(Cl)c(c2c1c(Cl)c(cc2)Cl)Cl,C10H4Cl4,d4tzvp,265.954,4,10,4,-2224.672199021898,-2224.551367598,0.0001705484,-2224.6022166005,3.314749376388,3.236406601,0.000813376,2.9938984405,0.1079311894,-8.8216,-0.2285,8.5931,0.0,167.83451,-0.00000 0.00000 -0.00000,0.03036,0.008158,0.00643
2-0464,pubchemPCH,ZQFAWINIPKDPBT-UHFFFAOYSA-N,c1cc2ccc3c4c2c(c1)c(Cl)c(c4ccc3)Cl,C16H8Cl2,xtb2,271.146,8,16,2,-47.480336238545,-47.284448318708,0.000179099291,-47.337846772452,6.674681915295,6.540167733338,0.001120339799,6.20613842161,0.181614124536,-10.2463,-7.9313,2.315013377769,3.172,189.690878,0.000 1.248 0.000,0.01582501,0.01296983,0.007127933
2-0464,pubchemPCH,ZQFAWINIPKDPBT-UHFFFAOYSA-N,c1cc2ccc3c4c2c(c1)c(Cl)c(c4ccc3)Cl,C16H8Cl2,r2scan,271.146,8,16,2,-1534.787023379241,-1534.5872694908,0.0001756722,-1534.6396461434,5.265405920567,5.1270245244,0.0012019696,4.7686571602,0.1856697376,-5.4566,-2.6657,2.7909,2.78842,219.87346,0.00024 1.09703 0.00001,0.015664,0.012834,0.007054
2-0464,pubchemPCH,ZQFAWINIPKDPBT-UHFFFAOYSA-N,c1cc2ccc3c4c2c(c1)c(Cl)c(c4ccc3)Cl,C16H8Cl2,d4tzvp,271.146,8,16,2,-1535.506736858196,-1535.3069829698,0.0001756722,-1535.3593596223998,5.196914335788,5.0585329396,0.0012019696,4.7001655762,0.1856697376,-7.9224,-0.3403,7.5821,2.83949,215.26359,0.00023 1.11712 0.00002,0.015664,0.012834,0.007054
2-0465,pubchemPCH,ZRNJCWGDFQRPAN-UHFFFAOYSA-N,c1cc(Cl)cc2c1ccc1c2ccc2c1cc(cc2)Cl,C18H10Cl2,xtb2,297.184,10,18,2,-52.772816075632,-52.541885186275,0.000196250735,-52.60039734288,7.59360348178,7.433488443823,0.001292470661,7.048138315366,0.214460286891,-10.377,-7.7361,2.640915886417,0.0,212.033629,-0.000 -0.000 -0.000,0.02879053,0.004172665,0.003644465
2-0465,pubchemPCH,ZRNJCWGDFQRPAN-UHFFFAOYSA-N,c1cc(Cl)cc2c1ccc1c2ccc2c1cc(cc2)Cl,C18H10Cl2,r2scan,297.184,10,18,2,-1612.181289382411,-1611.9454176167,0.000190671,-1612.0022661863,6.000696377831,5.8356390263,0.001387687,5.4219000339,0.2198781508,-5.5979,-2.4749,3.123,2E-05,260.80943,0.00000 -0.00000 -0.00001,0.028471,0.004139,0.003613
2-0465,pubchemPCH,ZRNJCWGDFQRPAN-UHFFFAOYSA-N,c1cc(Cl)cc2c1ccc1c2ccc2c1cc(cc2)Cl,C18H10Cl2,d4tzvp,297.184,10,18,2,-1612.98775503324,-1612.7518832675,0.000190671,-1612.8087318371,5.922251540586,5.7571941889,0.001387687,5.3434551975,0.2198781508,-8.1872,-0.0197,8.1675,2E-05,250.82423,-0.00000 -0.00000 0.00000,0.028471,0.004139,0.003613
2-0466,pubchemPCH,ZRNSVEOEIWQEMU-UHFFFAOYSA-N,c1c(Cl)c(Cl)cc2c1c(Cl)c(c(c2Cl)Cl)Cl,C10H2Cl6,xtb2,334.844,2,10,6,-49.764021191191,-49.66256187654,0.000197628755,-49.721484889939,4.148941139903,4.089971336092,0.000767333101,3.861190971765,0.085373171995,-11.0942,-8.524,2.570186225883,0.226,182.422269,0.089 0.000 -0.000,0.0144208,0.006418781,0.004441738
2-0466,pubchemPCH,ZRNSVEOEIWQEMU-UHFFFAOYSA-N,c1c(Cl)c(Cl)cc2c1c(Cl)c(c(c2Cl)Cl)Cl,C10H2Cl6,r2scan,334.844,2,10,6,-3143.26376250704,-3143.1601320678,0.0001911206,-3143.2171146756,3.263098532272,3.2019567414,0.0008266274,2.9554976544,0.0879977438,-6.2268,-3.0699,3.1569,0.00533,206.92571,0.00210 0.00000 0.00000,0.014127,0.006384,0.004397
2-0466,pubchemPCH,ZRNSVEOEIWQEMU-UHFFFAOYSA-N,c1c(Cl)c(Cl)cc2c1c(Cl)c(c(c2Cl)Cl)Cl,C10H2Cl6,d4tzvp,334.844,2,10,6,-3143.896406814533,-3143.7927763753,0.0001911206,-3143.8497589831,3.244405244543,3.1832634539,0.0008266274,2.9368043671,0.0879977438,-8.999,-0.595,8.404,0.00817,198.25452,-0.00322 -0.00000 -0.00000,0.014127,0.006384,0.004397
2-0467,pubchemPCH,ZUUKIDKYYILGJF-UHFFFAOYSA-N,Clc1ccc2-c3c(-c2c1)c(Cl)c(c(c3Cl)Cl)Cl,C12H3Cl5,xtb2,324.421,3,12,5,-49.937051593257,-49.815035411524,0.000200514571,-49.874818830986,4.824421170264,4.749615556131,0.000853949145,4.495010618128,0.105864604315,-10.8121,-8.4579,2.354233115541,1.669,183.933295,-0.562 0.340 0.000,0.0158257,0.005682506,0.004181178
2-0467,pubchemPCH,ZUUKIDKYYILGJF-UHFFFAOYSA-N,Clc1ccc2-c3c(-c2c1)c(Cl)c(c(c3Cl)Cl)Cl,C12H3Cl5,r2scan,324.421,3,12,5,-2759.811114624622,-2759.6871343812,0.0001950268,-2759.7452816314,3.762740078086,3.685969444,0.0009192218,3.4119033453,0.1080709666,-5.788,-3.0693,2.7187,1.39699,221.95363,-0.42737 0.34558 0.00005,0.015654,0.005637,0.004144
2-0467,pubchemPCH,ZUUKIDKYYILGJF-UHFFFAOYSA-N,Clc1ccc2-c3c(-c2c1)c(Cl)c(c(c3Cl)Cl)Cl,C12H3Cl5,d4tzvp,324.421,3,12,5,-2760.480396540026,-2760.3564162966,0.0001950268,-2760.4145635468,3.73004901671,3.6532783828,0.0009192218,3.3792122844,0.1080709666,-8.5203,-0.4689,8.0514,1.49842,210.43777,-0.46336 0.36445 0.00007,0.015654,0.005637,0.004144
2-0468,pubchemPCH,ZVORWIZONZUEEI-UHFFFAOYSA-N,c1c(Cl)ccc2c1cc(Cl)c(c2Cl)Cl,C10H4Cl4,xtb2,265.954,4,10,4,-41.673255053998,-41.555223180923,0.00017866528,-41.608492234295,4.23625974476,4.160717382525,0.000752487784,3.936363149493,0.104663083635,-10.9394,-8.1428,2.79656815138,1.307,157.176968,0.508 0.079 0.000,0.02545293,0.008380514,0.006304668
2-0468,pubchemPCH,ZVORWIZONZUEEI-UHFFFAOYSA-N,c1c(Cl)ccc2c1cc(Cl)c(c2Cl)Cl,C10H4Cl4,r2scan,265.954,4,10,4,-2224.111795389711,-2223.991114447,0.000173291,-2224.0427811541,3.344574620479,3.2663823262,0.0008106334,3.0246918699,0.1077564329,-6.115,-2.7563,3.3587,1.1143,175.78534,0.43791 0.02047 -0.00000,0.024862,0.008321,0.006234
2-0468,pubchemPCH,ZVORWIZONZUEEI-UHFFFAOYSA-N,c1c(Cl)ccc2c1cc(Cl)c(c2Cl)Cl,C10H4Cl4,d4tzvp,265.954,4,10,4,-2224.671436945447,-2224.5507560027,0.000173291,-2224.6024227098,3.313987299937,3.2357950057,0.0008106334,2.9941045498,0.1077564329,-8.8873,-0.2242,8.6631,1.20809,170.10281,0.47411 0.03354 -0.00000,0.024862,0.008321,0.006234
2-0469,pubchemPCH,ZXBQQSPNARWLCY-UHFFFAOYSA-N,c1ccc2c(c1Cl)c1cc(Cl)cc(c1cc2)Cl,C14H7Cl3,xtb2,281.569,7,14,3,-47.219375991851,-47.044827455341,0.000187101284,-47.100611703226,5.911272040306,5.793376184916,0.001022835946,5.488417647068,0.159718398354,-10.6234,-7.7682,2.855152793017,3.143,184.447585,-1.044 0.655 0.095,0.01560922,0.009490008,0.006014023
2-0469,pubchemPCH,ZXBQQSPNARWLCY-UHFFFAOYSA-N,c1ccc2c(c1Cl)c1cc(Cl)cc(c1cc2)Cl,C14H7Cl3,r2scan,281.569,7,14,3,-1918.13855682693,-1917.9599406846,0.0001822309,-1918.0142728198,4.664649940024,4.542685329,0.0010989103,4.2150451015,0.1642670815,-5.8106,-2.4731,3.3375,3.05051,210.853,-1.00374 0.64721 0.11810,0.015413,0.009316,0.005927
2-0469,pubchemPCH,ZXBQQSPNARWLCY-UHFFFAOYSA-N,c1ccc2c(c1Cl)c1cc(Cl)cc(c1cc2)Cl,C14H7Cl3,d4tzvp,281.569,7,14,3,-1918.821838131522,-1918.6432219892,0.0001822309,-1918.6975541244,4.61036156244,4.4883969514,0.0010989103,4.1607567246,0.1642670815,-8.4786,0.0158,8.4944,3.13158,204.61565,-1.03220 0.66158 0.12160,0.015413,0.009316,0.005927
2-0470,pubchemPCH,ZYDKUTVRNHZCLQ-UHFFFAOYSA-N,c1ccc2c(c1)cc(c1c2c(Cl)c(Cl)cc1)Cl,C14H7Cl3,xtb2,281.569,7,14,3,-47.2157718272,-47.041232963864,0.000187347749,-47.097090695086,5.907667875655,5.789781693439,0.001022589481,5.484896638928,0.15972604869,-10.5904,-7.7856,2.804762809806,1.894,184.586291,-0.715 0.158 -0.139,0.01483533,0.0104422,0.006192737
2-0470,pubchemPCH,ZYDKUTVRNHZCLQ-UHFFFAOYSA-N,c1ccc2c(c1)cc(c1c2c(Cl)c(Cl)cc1)Cl,C14H7Cl3,r2scan,281.569,7,14,3,-1918.133365075356,-1917.9547004618,0.0001811948,-1918.0087236949,4.65945818845,4.5374451062,0.0010999464,4.2094959766,0.1643884575,-5.79,-2.479,3.311,1.71776,210.34228,-0.63606 0.13756 -0.18225,0.014671,0.010252,0.006115
2-0470,pubchemPCH,ZYDKUTVRNHZCLQ-UHFFFAOYSA-N,c1ccc2c(c1)cc(c1c2c(Cl)c(Cl)cc1)Cl,C14H7Cl3,d4tzvp,281.569,7,14,3,-1918.817753350874,-1918.6390887373,0.0001811948,-1918.6931119704,4.606276781792,4.4842636995,0.0010999464,4.1563145706,0.1643884575,-8.4683,-0.0096,8.4587,1.78271,204.15556,-0.65512 0.16619 -0.18734,0.014671,0.010252,0.006115
2-0471,pubchemPCH,ZYLJLZWYIYXUTA-UHFFFAOYSA-N,c1c(Cl)cc2c(c1)c(Cl)c1c(c2Cl)ccc(c1)Cl,C14H6Cl4,xtb2,316.014,6,14,4,-51.269821503966,-51.103723764747,0.000196292675,-51.162248425786,5.872675181396,5.763230123297,0.001030548951,5.455971952942,0.149861841872,-10.4634,-8.5171,1.946230160281,0.0,196.819028,0.000 0.000 0.000,0.01824981,0.005442778,0.004192436
2-0471,pubchemPCH,ZYLJLZWYIYXUTA-UHFFFAOYSA-N,c1c(Cl)cc2c(c1)c(Cl)c1c(c2Cl)ccc(c1)Cl,C14H6Cl4,r2scan,316.014,6,14,4,-2377.721415132748,-2377.5517858843,0.0001912866,-2377.6088179718,4.630786643074,4.5178089259,0.0011067664,4.187826385,0.1537532294,-5.5776,-3.3042,2.2734,3E-05,240.23621,-0.00000 0.00001 -0.00000,0.017943,0.00539,0.004145
2-0471,pubchemPCH,ZYLJLZWYIYXUTA-UHFFFAOYSA-N,c1c(Cl)cc2c(c1)c(Cl)c1c(c2Cl)ccc(c1)Cl,C14H6Cl4,d4tzvp,316.014,6,14,4,-2378.437196506257,-2378.2675672579003,0.0001912866,-2378.3245993454,4.578443974935,4.4654662579,0.0011067664,4.1354837176,0.1537532294,-8.1305,-0.9606,7.1699,1E-05,231.43226,-0.00000 -0.00000 0.00000,0.017943,0.00539,0.004145
2-0472,pubchemPCH,ZYTLBFKRYKUCMJ-UHFFFAOYSA-N,Clc1cc2cc(Cl)c(cc2cc1)Cl,C10H5Cl3,xtb2,231.509,5,10,3,-37.627225977653,-37.500971852359,0.000167438613,-37.550893674749,4.27927303944,4.195508424986,0.000746810055,3.972847006633,0.114245304895,-10.8803,-7.9388,2.941488723375,1.443,144.610936,0.429 0.372 -0.000,0.04658099,0.008617025,0.007271811
2-0472,pubchemPCH,ZYTLBFKRYKUCMJ-UHFFFAOYSA-N,Clc1cc2cc(Cl)c(cc2cc1)Cl,C10H5Cl3,r2scan,231.509,5,10,3,-1764.535680539265,-1764.4066848855,0.0001634682,-1764.4554229224,3.385181372801,3.2986743675,0.0008035444,3.0590975067,0.1173437645,-6.0578,-2.5927,3.4651,1.39812,162.41448,0.39430 0.38351 -0.00000,0.045372,0.008555,0.007198
2-0472,pubchemPCH,ZYTLBFKRYKUCMJ-UHFFFAOYSA-N,Clc1cc2cc(Cl)c(cc2cc1)Cl,C10H5Cl3,d4tzvp,231.509,5,10,3,-1765.05866019103,-1764.9296645372,0.0001634682,-1764.9784025740998,3.34848650776,3.2619795024,0.0008035444,3.0224026421,0.1173437645,-8.8362,-0.0211,8.8151,1.46789,157.68513,0.42572 0.39021 0.00000,0.045372,0.008555,0.007198
2-0473,pubchemPCH,ZZJIYCVKIAWNSI-UHFFFAOYSA-N,c1ccc2-c3c4c(-c2c1)cccc4c(c(c3Cl)Cl)Cl,C16H7Cl3,xtb2,305.591,7,16,3,-51.508288420659,-51.320868575695,0.000194579833,-51.378882552923,6.613591726384,6.4875456193,0.001121763653,6.153091785395,0.171545228663,-10.6491,-8.3137,2.335389436763,3.337,202.147248,-0.931 -0.926 -0.000,0.01502481,0.008434837,0.00540212
2-0473,pubchemPCH,ZZJIYCVKIAWNSI-UHFFFAOYSA-N,c1ccc2-c3c4c(-c2c1)cccc4c(c(c3Cl)Cl)Cl,C16H7Cl3,r2scan,305.591,7,16,3,-1994.341390829309,-1994.1503341514,0.0001898152,-1994.206927546,5.203051767867,5.0733675822,0.0012047384,4.7141746943,0.1754581369,-5.8779,-3.0885,2.7894,2.98329,236.85944,-0.82420 -0.83562 -0.00003,0.014884,0.008338,0.005344
2-0473,pubchemPCH,ZZJIYCVKIAWNSI-UHFFFAOYSA-N,c1ccc2-c3c4c(-c2c1)cccc4c(c(c3Cl)Cl)Cl,C16H7Cl3,d4tzvp,305.591,7,16,3,-1995.099731488806,-1994.9086748109,0.0001898152,-1994.9652682055,5.142633004158,5.0129488185,0.0012047384,4.6537559313,0.1754581369,-8.5314,-0.7345,7.7969,3.17389,228.63114,-0.88979 -0.87606 -0.00002,0.014884,0.008338,0.005344
3-0001,monoCl,AAANPRZDCWXFEB-UHFFFAOYSA-N,c1ccc2-c3c(-c2c1)ccc1c3cc2c(Cl)cccc2c1,C20H11Cl,xtb2,286.761,11,20,1,-52.927205087487,-52.676494231261,0.000196950112,-52.735214907291,8.25044212193,8.075268173864,0.001381273144,7.663441585093,0.23428353977,-9.6483,-8.112,1.536337334825,1.811,214.189408,-0.063 -0.710 -0.000,0.01905549,0.005903948,0.004507418
3-0001,monoCl,AAANPRZDCWXFEB-UHFFFAOYSA-N,c1ccc2-c3c(-c2c1)ccc1c3cc2c(Cl)cccc2c1,C20H11Cl,r2scan,286.761,11,20,1,-1228.70764203951,-1228.451870122,0.0001918035,-1228.5090563353,6.479338463162,6.2991019208,0.0014830551,5.856928918,0.2397393232,-4.752,-3.0511,1.7009,1.86511,281.86475,-0.16010 -0.71610 -0.00004,0.018753,0.00586,0.004465
3-0001,monoCl,AAANPRZDCWXFEB-UHFFFAOYSA-N,c1ccc2-c3c(-c2c1)ccc1c3cc2c(Cl)cccc2c1,C20H11Cl,d4tzvp,286.761,11,20,1,-1229.548176314046,-1229.2924043965002,0.0001918035,-1229.3495906098003,6.384326868066,6.2040903255,0.0014830551,5.7619173238,0.2397393232,-7.1885,-0.6737,6.5148,2.01572,269.27561,-0.23881 -0.75622 -0.00004,0.018753,0.00586,0.004465
3-0002,monoCl,AAEPBRSOONNZGD-UHFFFAOYSA-N,c1ccc2c(c1)ccc1c2cc2c(c1)cc1c(c2)cc2c(c1)ccc(c2)Cl,C26H15Cl,xtb2,362.859,15,26,1,-67.895349335884,-67.561031643467,0.000227497674,-67.62886007498,10.884877086393,10.649701585936,0.00183569645,10.102388688068,0.313438670108,-9.6025,-8.2601,1.342423436655,2.607,279.864778,0.925 -0.443 0.000,0.02318975,0.001988442,0.001831405
3-0002,monoCl,AAEPBRSOONNZGD-UHFFFAOYSA-N,c1ccc2c(c1)ccc1c2cc2c(c1)cc1c(c2)cc2c(c1)ccc(c2)Cl,C26H15Cl,r2scan,362.859,15,26,1,-1459.800444390876,-1459.4590184899,0.0002206102,-1459.524793424,8.58975754818,8.3474718271,0.0019690932,7.7603865349,0.3211229734,-4.6833,-3.2545,1.4288,2.3811,427.1883,0.83795 -0.41880 0.00003,0.022927,0.001975,0.001818
3-0002,monoCl,AAEPBRSOONNZGD-UHFFFAOYSA-N,c1ccc2c(c1)ccc1c2cc2c(c1)cc1c(c2)cc2c(c1)ccc(c2)Cl,C26H15Cl,d4tzvp,362.859,15,26,1,-1460.880907930018,-1460.5394820289998,0.0002206102,-1460.6052569631,8.46007462798,8.2177889066,0.0019690932,7.6307036159,0.3211229734,-6.9738,-1.0648,5.909,2.37861,397.26338,0.83079 -0.43070 0.00003,0.022927,0.001975,0.001818
3-0003,monoCl,ACDCFYGTRJRDCC-UHFFFAOYSA-N,c1ccc2c(c1)cc1-c3c4c(-c1c2)cccc4c(c1c3cccc1)Cl,C24H13Cl,xtb2,336.821,13,24,1,-62.598133063155,-62.298356588714,0.000214017703,-62.362165966721,9.961219084266,9.751142688265,0.001659894115,9.256245256481,0.280775687935,-9.8551,-8.1463,1.708841053083,1.556,257.22709,-0.585 -0.179 0.000,0.01364698,0.004586066,0.003432556
3-0003,monoCl,ACDCFYGTRJRDCC-UHFFFAOYSA-N,c1ccc2c(c1)cc1-c3c4c(-c1c2)cccc4c(c1c3cccc1)Cl,C24H13Cl,r2scan,336.821,13,24,1,-1382.400828239175,-1382.0950867545,0.0002089609,-1382.1573884334,7.849116942385,7.6330737157,0.0017800263,7.1023587135,0.2870675828,-5.0617,-3.1185,1.9432,1.25532,345.36376,-0.46598 -0.16360 0.00000,0.013537,0.004544,0.003402
3-0003,monoCl,ACDCFYGTRJRDCC-UHFFFAOYSA-N,c1ccc2c(c1)cc1-c3c4c(-c1c2)cccc4c(c1c3cccc1)Cl,C24H13Cl,d4tzvp,336.821,13,24,1,-1383.401133294799,-1383.0953918101,0.0002089609,-1383.157693489,7.735980963007,7.5199377361,0.0017800263,6.9892227352,0.2870675828,-7.445,-0.8909,6.5541,1.3106,328.89071,-0.49284 -0.15156 0.00001,0.013537,0.004544,0.003402
3-0004,monoCl,ACUBYHDBKUXXGV-UHFFFAOYSA-N,c1ccc2c(c1)cc1c(c2)cc2c(c1Cl)c1ccccc1cc2,C22H13Cl,xtb2,312.799,13,22,1,-58.298058237098,-58.011333894945,0.000206034299,-58.072763021113,9.247737000939,9.045991680466,0.001561471263,8.580439022243,0.268827056665,-9.7512,-8.0038,1.747410010188,1.502,239.927386,-0.121 -0.560 0.145,0.02303271,0.004496077,0.003799985
3-0004,monoCl,ACUBYHDBKUXXGV-UHFFFAOYSA-N,c1ccc2c(c1)cc1c(c2)cc2c(c1Cl)c1ccccc1cc2,C22H13Cl,r2scan,312.799,13,22,1,-1306.184926252333,-1305.8915831377,0.0001993671,-1305.9510244395,7.297647130079,7.0892813125,0.0016762077,6.589519853,0.2760798403,-4.9061,-2.9658,1.9403,1.32371,323.45235,-0.11500 -0.47981 0.16663,0.022744,0.004439,0.003753