id,subset,key,smiles,formula,level,mwt,nH,nC,nCl,E,H,S,G,dE,dH,dS,dG,zpe,homo,lumo,gap,Mu,alpha,tMu,rotA,rotB,rotC
3-0211,monoCl,FGSYLFCCJOSESB-UHFFFAOYSA-N,c1ccc2c(c1)c1c2c2c3ccccc3c2c2c1cccc2Cl,C22H11Cl,r2scan,310.783,11,22,1,-1304.838049657983,-1304.5703578045,0.0002028794,-1304.6308462922,6.945313907099,6.7578783897,0.0015853916,6.2851937415,0.250051862,-4.7796,-3.009,1.7706,1.55071,311.69286,0.56802 -0.22260 0.00001,0.011267,0.006848,0.004259
3-0211,monoCl,FGSYLFCCJOSESB-UHFFFAOYSA-N,c1ccc2c(c1)c1c2c2c3ccccc3c2c2c1cccc2Cl,C22H11Cl,d4tzvp,310.783,11,22,1,-1305.75274280516,-1305.4850509516998,0.0002028794,-1305.5455394393998,6.843271443614,6.6558359261,0.0015853916,6.183151279,0.250051862,-7.2144,-0.6163,6.5981,1.60864,293.72338,0.60599 -0.18251 0.00000,0.011267,0.006848,0.004259
3-0212,monoCl,FGXMORRGYNIRBG-UHFFFAOYSA-N,c1c(Cl)cc2c(c1)cc1c3c2ccc2c3c(c3c1cccc3)ccc2,C24H13Cl,xtb2,336.821,13,24,1,-62.623064990718,-62.322485151419,0.000213967992,-62.386279708318,9.986151011829,9.77527125097,0.001659943826,9.280358998078,0.28164644786,-9.9786,-7.7778,2.200801885749,2.399,257.226631,0.908 -0.256 -0.000,0.01300518,0.004580047,0.00338718
3-0212,monoCl,FGXMORRGYNIRBG-UHFFFAOYSA-N,c1c(Cl)cc2c(c1)cc1c3c2ccc2c3c(c3c1cccc3)ccc2,C24H13Cl,r2scan,336.821,13,24,1,-1382.429819515093,-1382.123448938,0.000208721,-1382.1856790996,7.878108218303,7.6614358992,0.0017802662,7.1306493797,0.287793249,-5.1747,-2.625,2.5497,2.26192,328.8895,0.84625 -0.27523 -0.00280,0.01289,0.004543,0.003359
3-0212,monoCl,FGXMORRGYNIRBG-UHFFFAOYSA-N,c1c(Cl)cc2c(c1)cc1c3c2ccc2c3c(c3c1cccc3)ccc2,C24H13Cl,d4tzvp,336.821,13,24,1,-1383.433948085336,-1383.1275775082,0.000208721,-1383.1898076698,7.768795753544,7.5521234342,0.0017802662,7.021336916,0.287793249,-7.5773,-0.3187,7.2586,2.28121,315.09198,0.85268 -0.27998 -0.00341,0.01289,0.004543,0.003359
3-0213,monoCl,FHEXMLJVNZQOLZ-UHFFFAOYSA-N,c1cccc2c1cc1-c3cccc4c3c3c1c2cc(Cl)c3cc4,C22H11Cl,xtb2,310.783,11,22,1,-57.297404418163,-57.032378644389,0.000198088769,-57.091438811001,9.034048709876,8.849280901022,0.001486540743,8.406068777433,0.248245670273,-10.2415,-7.8442,2.397279836472,2.286,234.440469,-0.173 -0.882 0.000,0.01172974,0.007422201,0.004545779
3-0213,monoCl,FHEXMLJVNZQOLZ-UHFFFAOYSA-N,c1cccc2c1cc1-c3cccc4c3c3c1c2cc(Cl)c3cc4,C22H11Cl,r2scan,310.783,11,22,1,-1304.999939703386,-1304.7298823773,0.0001950003,-1304.7880217271,7.107203952502,6.9174029625,0.0015932707,6.4423691764,0.2534396719,-5.5203,-2.7791,2.7412,2.24455,293.8014,-0.17156 -0.86623 0.00004,0.011637,0.007356,0.004507
3-0213,monoCl,FHEXMLJVNZQOLZ-UHFFFAOYSA-N,c1cccc2c1cc1-c3cccc4c3c3c1c2cc(Cl)c3cc4,C22H11Cl,d4tzvp,310.783,11,22,1,-1305.918443619758,-1305.6483862937,0.0001950003,-1305.7065256434998,7.008972258212,6.8191712681,0.0015932707,6.3441374831,0.2534396719,-8.0343,-0.4096,7.6247,2.28796,282.64632,-0.16264 -0.88532 0.00003,0.011637,0.007356,0.004507
3-0214,monoCl,FHUKMNPCJUZFPJ-UHFFFAOYSA-N,c1ccc2c(c1)cc1c(c2)c(Cl)c2c(c1)c1c(cc2)ccc2c1cccc2,C26H15Cl,xtb2,362.859,15,26,1,-67.894457245805,-67.55958651132,0.000225678763,-67.62687263442,10.883984996314,10.648256453789,0.001837515361,10.100401247508,0.314176852856,-9.677,-8.061,1.615955422036,1.877,279.8654,0.243 0.682 0.144,0.01077343,0.003745534,0.002833256
3-0214,monoCl,FHUKMNPCJUZFPJ-UHFFFAOYSA-N,c1ccc2c(c1)cc1c(c2)c(Cl)c2c(c1)c1c(cc2)ccc2c1cccc2,C26H15Cl,r2scan,362.859,15,26,1,-1459.798034254797,-1459.4552657756,0.0002174231,-1459.5200904748,8.587347412101,8.3437191128,0.0019722803,7.7556835857,0.3228382626,-4.8265,-3.0519,1.7746,1.77269,379.88406,0.24634 0.64034 0.12517,0.010636,0.003701,0.002797
3-0214,monoCl,FHUKMNPCJUZFPJ-UHFFFAOYSA-N,c1ccc2c(c1)cc1c(c2)c(Cl)c2c(c1)c1c(cc2)ccc2c1cccc2,C26H15Cl,d4tzvp,362.859,15,26,1,-1460.882147478395,-1460.5393789992,0.0002174231,-1460.6042036984,8.461314176357,8.2176858768,0.0019722803,7.6296503512,0.3228382626,-7.194,-0.8083,6.3857,1.7888,360.57912,0.24837 0.64505 0.13227,0.010636,0.003701,0.002797
3-0215,monoCl,FIFYTEQGRRUEAV-UHFFFAOYSA-N,c1c2c(cc3c(c2)cccc3)cc2c1cc1c(Cl)cc3c(c1c2)cccc3,C26H15Cl,xtb2,362.859,15,26,1,-67.894825437916,-67.560435807657,0.000227633441,-67.628304718146,10.884353188425,10.649105750126,0.001835560683,10.101833331234,0.313492322213,-9.5806,-8.228,1.352594496627,2.043,279.879258,-0.246 0.765 0.000,0.01547959,0.002539269,0.002181428
3-0215,monoCl,FIFYTEQGRRUEAV-UHFFFAOYSA-N,c1c2c(cc3c(c2)cccc3)cc2c1cc1c(Cl)cc3c(c1c2)cccc3,C26H15Cl,r2scan,362.859,15,26,1,-1459.799123603002,-1459.4575438039,0.0002207101,-1459.5233485178,8.588436760306,8.3459971411,0.0019689933,7.7589416287,0.3212570161,-4.6742,-3.2423,1.4319,1.91909,415.64343,-0.21844 0.72272 -0.00004,0.015263,0.002522,0.002164
3-0215,monoCl,FIFYTEQGRRUEAV-UHFFFAOYSA-N,c1c2c(cc3c(c2)cccc3)cc2c1cc1c(Cl)cc3c(c1c2)cccc3,C26H15Cl,d4tzvp,362.859,15,26,1,-1460.880377620781,-1460.5387978217,0.0002207101,-1460.6046025356,8.459544318743,8.2171046993,0.0019689933,7.6300491884,0.3212570161,-6.9558,-1.0418,5.914,1.8724,389.71321,-0.17136 0.71644 -0.00004,0.015263,0.002522,0.002164
3-0216,monoCl,FIIQCPQFRQRCLB-UHFFFAOYSA-N,c1ccc2c(c1)ccc1c2ccc2c1c1c(Cl)cccc1cc2,C22H13Cl,xtb2,312.799,13,22,1,-58.304730879668,-58.017731325842,0.000204557236,-58.078720065674,9.254409643509,9.052389111363,0.001562948326,8.586396066804,0.269263520223,-10.1091,-7.3732,2.735846630395,1.5,239.93018,0.290 -0.378 -0.348,0.01762393,0.005945001,0.004735474
3-0216,monoCl,FIIQCPQFRQRCLB-UHFFFAOYSA-N,c1ccc2c(c1)ccc1c2ccc2c1c1c(Cl)cccc1cc2,C22H13Cl,r2scan,312.799,13,22,1,-1306.190494819937,-1305.8968359521,0.0001976128,-1305.9557542161,7.303215697683,7.0945341269,0.001677962,6.5942496296,0.2765915108,-5.3799,-2.315,3.0649,1.43083,293.58547,0.34347 -0.30668 -0.32382,0.017269,0.005795,0.004641
3-0216,monoCl,FIIQCPQFRQRCLB-UHFFFAOYSA-N,c1ccc2c(c1)ccc1c2ccc2c1c1c(Cl)cccc1cc2,C22H13Cl,d4tzvp,312.799,13,22,1,-1307.120831948632,-1306.8271730808,0.0001976128,-1306.8860913448,7.201301532406,6.9926199614,0.001677962,6.4923354654,0.2765915108,-7.937,0.0974,8.0344,1.54453,282.50316,0.40121 -0.31051 -0.33444,0.017269,0.005795,0.004641
3-0217,monoCl,FIIYIRVZRRMPJU-UHFFFAOYSA-N,c1ccc2c(c1)c1cc3cc4ccc5c(c4cc3cc1cc2)cc(cc5)Cl,C26H15Cl,xtb2,362.859,15,26,1,-67.907075386551,-67.572131010046,0.000227871641,-67.640070939705,10.89660313706,10.660800952515,0.001835322483,10.113599552793,0.314080775308,-9.8377,-7.9021,1.935603534651,2.311,279.856702,-0.571 0.707 0.000,0.01721918,0.002377322,0.002088921
3-0217,monoCl,FIIYIRVZRRMPJU-UHFFFAOYSA-N,c1ccc2c(c1)c1cc3cc4ccc5c(c4cc3cc1cc2)cc(cc5)Cl,C26H15Cl,r2scan,362.859,15,26,1,-1459.814193736593,-1459.472196572,0.0002207659,-1459.538017919,8.603506893897,8.3606499092,0.0019689375,7.7736110299,0.3217040635,-4.998,-2.8705,2.1275,2.14296,397.25747,-0.50561 0.67465 0.00001,0.017024,0.00236,0.002073
3-0217,monoCl,FIIYIRVZRRMPJU-UHFFFAOYSA-N,c1ccc2c(c1)c1cc3cc4ccc5c(c4cc3cc1cc2)cc(cc5)Cl,C26H15Cl,d4tzvp,362.859,15,26,1,-1460.900768556859,-1460.5587713923,0.0002207659,-1460.6245927393,8.479935254821,8.2370782699,0.0019689375,7.6500393921,0.3217040635,-7.4086,-0.5586,6.85,2.12746,371.14563,-0.47848 0.68674 0.00002,0.017024,0.00236,0.002073
3-0218,monoCl,FIJATSQQKZJSCT-UHFFFAOYSA-N,c1c2c(cc3c(c2)cccc3)cc2c1ccc1c2cc2c(c1)c(Cl)ccc2,C26H15Cl,xtb2,362.859,15,26,1,-67.900378228613,-67.565749623536,0.000227077348,-67.633452734864,10.889905979122,10.654419566005,0.001836116776,10.106981347952,0.313786977861,-9.7788,-7.9201,1.858748863772,2.239,279.875898,-0.769 0.429 -0.000,0.01930671,0.002334526,0.002082691
3-0218,monoCl,FIJATSQQKZJSCT-UHFFFAOYSA-N,c1c2c(cc3c(c2)cccc3)cc2c1ccc1c2cc2c(c1)c(Cl)ccc2,C26H15Cl,r2scan,362.859,15,26,1,-1459.806777650487,-1459.4650545473,0.0002204732,-1459.5307886442,8.596090807791,8.3535078845,0.0019692302,7.7663817551,0.3214504152,-4.9511,-2.8931,2.058,2.12553,411.60638,-0.71330 0.43645 -0.00005,0.019137,0.002313,0.002064
3-0218,monoCl,FIJATSQQKZJSCT-UHFFFAOYSA-N,c1c2c(cc3c(c2)cccc3)cc2c1ccc1c2cc2c(c1)c(Cl)ccc2,C26H15Cl,d4tzvp,362.859,15,26,1,-1460.890120649507,-1460.5483975463,0.0002204732,-1460.6141316432,8.469287347469,8.2267044239,0.0019692302,7.639578296,0.3214504152,-7.3446,-0.5786,6.766,2.0538,380.93122,-0.67109 0.45002 -0.00005,0.019137,0.002313,0.002064
3-0219,monoCl,FILIRXZACCJXOK-UHFFFAOYSA-N,c1ccc2-c3c4c(-c2c1)cc1c2ccccc2ccc1c4cc(c3)Cl,C24H13Cl,xtb2,336.821,13,24,1,-62.606453234363,-62.306393412956,0.000214556818,-62.370363528184,9.969539255474,9.759179512507,0.001659355,9.264442817944,0.28105550534,-10.2252,-7.9715,2.253759564998,2.473,257.158909,0.506 0.831 -0.000,0.009896192,0.005003027,0.003323055
3-0219,monoCl,FILIRXZACCJXOK-UHFFFAOYSA-N,c1ccc2-c3c4c(-c2c1)cc1c2ccccc2ccc1c4cc(c3)Cl,C24H13Cl,r2scan,336.821,13,24,1,-1382.410606707035,-1382.1046442243,0.0002095127,-1382.1671104412,7.858895410245,7.6426311855,0.0017794745,7.1120807213,0.2872984326,-5.4829,-2.8504,2.6325,2.31144,331.88846,0.45718 0.78610 0.00003,0.009793,0.004964,0.003294
3-0219,monoCl,FILIRXZACCJXOK-UHFFFAOYSA-N,c1ccc2-c3c4c(-c2c1)cc1c2ccccc2ccc1c4cc(c3)Cl,C24H13Cl,d4tzvp,336.821,13,24,1,-1383.415314890902,-1383.1093524082,0.0002095127,-1383.1718186251,7.75016255911,7.5338983342,0.0017794745,7.0033478713,0.2872984326,-7.9817,-0.5228,7.4589,2.29708,316.53477,0.41404 0.80330 0.00002,0.009793,0.004964,0.003294
3-0220,monoCl,FJFWYFMMDSPYFN-UHFFFAOYSA-N,c1ccc2c(c1)cc1-c3cccc4c3c(-c1c2)cc1c4c(Cl)ccc1,C24H13Cl,xtb2,336.821,13,24,1,-62.602865236705,-62.302841930797,0.000214034568,-62.36665633738,9.965951257816,9.755628030348,0.00165987725,9.26073562714,0.281107603029,-10.096,-7.7396,2.356463305877,1.764,257.187811,0.445 0.532 -0.000,0.01865078,0.003682998,0.003075646
3-0220,monoCl,FJFWYFMMDSPYFN-UHFFFAOYSA-N,c1ccc2c(c1)cc1-c3cccc4c3c(-c1c2)cc1c4c(Cl)ccc1,C24H13Cl,r2scan,336.821,13,24,1,-1382.40406616307,-1382.0981617238,0.0002090262,-1382.160482873,7.85235486628,7.636148685,0.001779961,7.1054531531,0.2873570872,-5.2913,-2.6312,2.6601,1.52707,342.09081,0.34178 0.49409 -0.00002,0.018419,0.003645,0.003043
3-0220,monoCl,FJFWYFMMDSPYFN-UHFFFAOYSA-N,c1ccc2c(c1)cc1-c3cccc4c3c(-c1c2)cc1c4c(Cl)ccc1,C24H13Cl,d4tzvp,336.821,13,24,1,-1383.408053648005,-1383.1021492087002,0.0002090262,-1383.1644703579002,7.742901316213,7.5266951347,0.001779961,6.9959996041,0.2873570872,-7.7981,-0.2847,7.5134,1.5633,323.33938,0.33887 0.51326 -0.00002,0.018419,0.003645,0.003043
3-0221,monoCl,FJJSBGZZWILNAG-UHFFFAOYSA-N,c1ccc2c(c1)c1c2cc2c(c1)c(Cl)c1c(c2)c2c1cccc2,C22H11Cl,xtb2,310.783,11,22,1,-57.163951569164,-56.900599346644,0.000207310129,-56.962408861503,8.900595860877,8.717501603277,0.001477319383,8.277038827935,0.24557946605,-9.95,-7.661,2.289075294092,1.703,228.777528,-0.095 -0.663 0.000,0.02596928,0.003766679,0.003289551
3-0221,monoCl,FJJSBGZZWILNAG-UHFFFAOYSA-N,c1ccc2c(c1)c1c2cc2c(c1)c(Cl)c1c(c2)c2c1cccc2,C22H11Cl,r2scan,310.783,11,22,1,-1304.850054545507,-1304.5820424561,0.0002019859,-1304.6422645453,6.957318794623,6.7695630413,0.0015862851,6.2966119946,0.2505576072,-5.0205,-2.5955,2.425,1.59454,335.78571,-0.09989 -0.61932 0.00001,0.025838,0.003715,0.003248
3-0221,monoCl,FJJSBGZZWILNAG-UHFFFAOYSA-N,c1ccc2c(c1)c1c2cc2c(c1)c(Cl)c1c(c2)c2c1cccc2,C22H11Cl,d4tzvp,310.783,11,22,1,-1305.767233078126,-1305.4992209887,0.0002019859,-1305.5594430779,6.85776171658,6.6700059631,0.0015862851,6.1970549175,0.2505576072,-7.5184,-0.0679,7.4505,1.60554,309.51017,-0.06836 -0.62795 0.00004,0.025838,0.003715,0.003248
3-0222,monoCl,FJKSVLFYNUCXOR-UHFFFAOYSA-N,c1cc2cc3ccc4c5c3c(c2cc1Cl)c1ccccc1c5ccc4,C24H13Cl,xtb2,336.821,13,24,1,-62.615958274595,-62.315555723747,0.000210496035,-62.378315116686,9.979044295706,9.768341823298,0.001663415783,9.272394406446,0.281811243718,-9.9139,-7.829,2.084869872299,2.229,257.208672,0.679 -0.498 0.246,0.01155774,0.005560783,0.003905439
3-0222,monoCl,FJKSVLFYNUCXOR-UHFFFAOYSA-N,c1cc2cc3ccc4c5c3c(c2cc1Cl)c1ccccc1c5ccc4,C24H13Cl,r2scan,336.821,13,24,1,-1382.420309506176,-1382.1130757534,0.0002036188,-1382.1737846927,7.868598209386,7.6510627146,0.0017853684,7.1187549728,0.2892758665,-5.1069,-2.6873,2.4196,2.05909,325.26496,0.61133 -0.47350 0.24149,0.011452,0.005496,0.003849
3-0222,monoCl,FJKSVLFYNUCXOR-UHFFFAOYSA-N,c1cc2cc3ccc4c5c3c(c2cc1Cl)c1ccccc1c5ccc4,C24H13Cl,d4tzvp,336.821,13,24,1,-1383.422123718271,-1383.1148899655,0.0002036188,-1383.1755989048002,7.756971386479,7.5394358915,0.0017853684,7.007128151,0.2892758665,-7.5022,-0.4004,7.1018,2.12202,312.73067,0.62102 -0.49889 0.24984,0.011452,0.005496,0.003849
3-0223,monoCl,FJRHWQCNBPIJFJ-UHFFFAOYSA-N,Clc1cc2ccc3c(c2c2c1cc1c(c2)cccc1)c1ccccc1cc3,C26H15Cl,xtb2,362.859,15,26,1,-67.899215603418,-67.564288615726,0.000224998581,-67.631371942725,10.888743353927,10.652958558195,0.001838195543,10.104900555813,0.314282759638,-9.9342,-7.7517,2.182532464124,2.092,279.869935,0.444 -0.616 -0.318,0.007954226,0.005597167,0.003577347
3-0223,monoCl,FJRHWQCNBPIJFJ-UHFFFAOYSA-N,Clc1cc2ccc3c(c2c2c1cc1c(c2)cccc1)c1ccccc1cc3,C26H15Cl,r2scan,362.859,15,26,1,-1459.801371601304,-1459.4584220102,0.0002161487,-1459.5228667481,8.590684758608,8.3468753474,0.0019735547,7.758459859,0.323129026,-5.1154,-2.7034,2.412,1.96626,348.82639,0.39228 -0.61247 -0.26344,0.00789,0.005474,0.003509
3-0223,monoCl,FJRHWQCNBPIJFJ-UHFFFAOYSA-N,Clc1cc2ccc3c(c2c2c1cc1c(c2)cccc1)c1ccccc1cc3,C26H15Cl,d4tzvp,362.859,15,26,1,-1460.888360301868,-1460.5454107108,0.0002161487,-1460.6098554487,8.46752699983,8.2237175884,0.0019735547,7.6353021015,0.323129026,-7.5979,-0.3358,7.2621,1.98011,334.53835,0.42817 -0.59299 -0.26816,0.00789,0.005474,0.003509
3-0224,monoCl,FJVCVRZZJSOHDS-UHFFFAOYSA-N,c1ccc2c(c1)ccc1c2cc2-c3cccc4c3c(-c2c1)c(Cl)cc4,C24H13Cl,xtb2,336.821,13,24,1,-62.606511531262,-62.306452387978,0.000213515042,-62.370111897828,9.969597552373,9.759238487529,0.001660396776,9.264191187588,0.281164685127,-10.1213,-7.8958,2.225455779031,1.761,257.192547,-0.112 0.684 0.000,0.01421119,0.004208603,0.00324701
3-0224,monoCl,FJVCVRZZJSOHDS-UHFFFAOYSA-N,c1ccc2c(c1)ccc1c2cc2-c3cccc4c3c(-c2c1)c(Cl)cc4,C24H13Cl,r2scan,336.821,13,24,1,-1382.410973822458,-1382.1049260421,0.0002079484,-1382.1669258532,7.859262525668,7.6429130033,0.0017810388,7.1118961333,0.2875545593,-5.3515,-2.796,2.5555,1.6884,337.03653,-0.16604 0.64317 -0.00004,0.014085,0.004167,0.003216
3-0224,monoCl,FJVCVRZZJSOHDS-UHFFFAOYSA-N,c1ccc2c(c1)ccc1c2cc2-c3cccc4c3c(-c2c1)c(Cl)cc4,C24H13Cl,d4tzvp,336.821,13,24,1,-1383.414426623945,-1383.1083788435,0.0002079484,-1383.1703786546,7.749274292153,7.5329247695,0.0017810388,7.0019079008,0.2875545593,-7.8833,-0.4667,7.4166,1.72038,318.80048,-0.17172 0.65469 -0.00005,0.014085,0.004167,0.003216
3-0225,monoCl,FKGUGHOSDMRNCQ-UHFFFAOYSA-N,c1ccc2-c3c4c(-c2c1)c1c2ccccc2ccc1cc4ccc3Cl,C24H13Cl,xtb2,336.821,13,24,1,-62.595758178841,-62.295658442204,0.000211722957,-62.358783641922,9.958844199952,9.748444541755,0.001662188861,9.252862931682,0.281361963019,-10.0627,-8.0964,1.966357801381,2.228,257.171159,0.810 -0.327 -0.074,0.01283118,0.005393872,0.003899455
3-0225,monoCl,FKGUGHOSDMRNCQ-UHFFFAOYSA-N,c1ccc2-c3c4c(-c2c1)c1c2ccccc2ccc1cc4ccc3Cl,C24H13Cl,r2scan,336.821,13,24,1,-1382.39738980765,-1382.0905793656,0.0002050022,-1382.1517007619,7.84567851086,7.6285663268,0.001783985,7.096671042,0.2886783508,-5.2999,-3.0464,2.2535,2.09908,323.81361,0.74969 -0.33592 -0.08432,0.012701,0.005324,0.003848
3-0225,monoCl,FKGUGHOSDMRNCQ-UHFFFAOYSA-N,c1ccc2-c3c4c(-c2c1)c1c2ccccc2ccc1cc4ccc3Cl,C24H13Cl,d4tzvp,336.821,13,24,1,-1383.399668565801,-1383.0928581238002,0.0002050022,-1383.1539795201002,7.734516234009,7.5174040498,0.001783985,6.9855087663,0.2886783508,-7.7875,-0.7807,7.0068,2.05551,311.11579,0.73094 -0.33339 -0.09240,0.012701,0.005324,0.003848
3-0226,monoCl,FKSKZPGHWGPLNZ-UHFFFAOYSA-N,Clc1ccc2c(c1)ccc1c2c2ccc3c(c2cc1)ccc1c3cccc1,C26H15Cl,xtb2,362.859,15,26,1,-67.905907844552,-67.570403116242,0.000225872105,-67.637746884331,10.895435595061,10.659073058711,0.001837322019,10.111275497419,0.314820329146,-10.0789,-7.5095,2.569379742848,2.415,279.80839,0.707 0.634 0.036,0.01330177,0.00290502,0.002414778
3-0226,monoCl,FKSKZPGHWGPLNZ-UHFFFAOYSA-N,Clc1ccc2c(c1)ccc1c2c2ccc3c(c2cc1)ccc1c3cccc1,C26H15Cl,r2scan,362.859,15,26,1,-1459.81247445551,-1459.4692717218,0.0002180918,-1459.5342957858,8.601787612814,8.357725059,0.0019716116,7.7698888967,0.3232453809,-5.3632,-2.3991,2.9641,2.21795,366.69554,0.66326 0.56641 0.02615,0.013392,0.002845,0.002373
3-0226,monoCl,FKSKZPGHWGPLNZ-UHFFFAOYSA-N,Clc1ccc2c(c1)ccc1c2c2ccc3c(c2cc1)ccc1c3cccc1,C26H15Cl,d4tzvp,362.859,15,26,1,-1460.901928865799,-1460.5587261321,0.0002180918,-1460.6237501961,8.481095563761,8.2370330097,0.0019716116,7.6491968489,0.3232453809,-7.8812,-0.0101,7.8711,2.24009,348.04658,0.65499 0.58882 0.03116,0.013392,0.002845,0.002373
3-0227,monoCl,FKZVOUXHFMIYNI-UHFFFAOYSA-N,c1cc2ccc3c4c2c(c1)ccc4cc1c3cc2ccccc2c1Cl,C24H13Cl,xtb2,336.821,13,24,1,-62.615597777244,-62.315564376306,0.000211156228,-62.37852060558,9.978683798355,9.768350475857,0.00166275559,9.27259989534,0.281279119949,-9.703,-8.067,1.636027382925,1.84,257.281845,-0.275 0.669 -0.000,0.01717006,0.004190239,0.003368242
3-0227,monoCl,FKZVOUXHFMIYNI-UHFFFAOYSA-N,c1cc2ccc3c4c2c(c1)ccc4cc1c3cc2ccccc2c1Cl,C24H13Cl,r2scan,336.821,13,24,1,-1382.421571099878,-1382.11514648,0.0002057395,-1382.1764877256,7.869859803088,7.6531334412,0.0017832477,7.1214580057,0.2881690643,-4.8736,-2.9944,1.8792,1.78407,354.44726,-0.28448 0.64166 -0.00000,0.016917,0.004161,0.00334
3-0227,monoCl,FKZVOUXHFMIYNI-UHFFFAOYSA-N,c1cc2ccc3c4c2c(c1)ccc4cc1c3cc2ccccc2c1Cl,C24H13Cl,d4tzvp,336.821,13,24,1,-1383.419836626098,-1383.1134120062002,0.0002057395,-1383.1747532518002,7.754684294306,7.5379579322,0.0017832477,7.006282498,0.2881690643,-7.1678,-0.7996,6.3682,1.79158,338.93205,-0.26494 0.65316 -0.00000,0.016917,0.004161,0.00334
3-0228,monoCl,FLSTYPUNYAZLNI-UHFFFAOYSA-N,c1ccc2-c3c4c(-c2c1)cc1cc(Cl)cc2c1c4c(cc3)cc2,C22H11Cl,xtb2,310.783,11,22,1,-57.315234975014,-57.050379774039,0.000197853604,-57.109369826099,9.051879266727,8.867282030672,0.001486775908,8.423999792531,0.248093403052,-10.1713,-8.1379,2.033432500866,2.074,234.537663,-0.552 0.601 -0.000,0.01623159,0.005426451,0.004066846
3-0228,monoCl,FLSTYPUNYAZLNI-UHFFFAOYSA-N,c1ccc2-c3c4c(-c2c1)cc1cc(Cl)cc2c1c4c(cc3)cc2,C22H11Cl,r2scan,310.783,11,22,1,-1305.019443739816,-1304.7496110798,0.0001922932,-1304.8069433062,7.126707988932,6.937131665,0.0015959778,6.4612907555,0.2532552253,-5.3855,-3.0128,2.3727,1.82708,302.4513,-0.47384 0.54053 -0.00001,0.016088,0.005379,0.004031
3-0228,monoCl,FLSTYPUNYAZLNI-UHFFFAOYSA-N,c1ccc2-c3c4c(-c2c1)cc1cc(Cl)cc2c1c4c(cc3)cc2,C22H11Cl,d4tzvp,310.783,11,22,1,-1305.935014354031,-1305.665181694,0.0001922932,-1305.7225139204002,7.025542992485,6.8359666684,0.0015959778,6.36012576,0.2532552253,-7.8104,-0.7632,7.0472,1.87636,290.14009,-0.50172 0.54150 -0.00001,0.016088,0.005379,0.004031
3-0229,monoCl,FLTIULUVOUNVNV-UHFFFAOYSA-N,c1cc(Cl)cc2c1ccc1c2cc2c(c1)ccc1c2c2ccccc2cc1,C26H15Cl,xtb2,362.859,15,26,1,-67.905655284158,-67.570400068191,0.000225661813,-67.637681137592,10.895183034667,10.65907001066,0.001837532311,10.11120975068,0.314601253091,-9.9542,-7.6559,2.298211161598,2.071,279.814504,-0.141 0.786 0.160,0.00895428,0.00432203,0.002991143
3-0229,monoCl,FLTIULUVOUNVNV-UHFFFAOYSA-N,c1cc(Cl)cc2c1ccc1c2cc2c(c1)ccc1c2c2ccccc2cc1,C26H15Cl,r2scan,362.859,15,26,1,-1459.811966146017,-1459.4690594214,0.0002177816,-1459.5339910096,8.601279303321,8.3575127586,0.0019719218,7.7695841205,0.3229719545,-5.1752,-2.6039,2.5713,1.82925,357.02505,-0.11598 0.69596 0.14180,0.008855,0.004267,0.002948
3-0229,monoCl,FLTIULUVOUNVNV-UHFFFAOYSA-N,c1cc(Cl)cc2c1ccc1c2cc2c(c1)ccc1c2c2ccccc2cc1,C26H15Cl,d4tzvp,362.859,15,26,1,-1460.899982770664,-1460.5570760461,0.0002177816,-1460.6220076343,8.479149468626,8.2353829237,0.0019719218,7.6474542871,0.3229719545,-7.6489,-0.2434,7.4055,1.89968,340.08583,-0.09196 0.72757 0.14407,0.008855,0.004267,0.002948