id,subset,key,smiles,formula,level,mwt,nH,nC,nCl,E,H,S,G,dE,dH,dS,dG,zpe,homo,lumo,gap,Mu,alpha,tMu,rotA,rotB,rotC
2-0153,pubchemPCH,IUXZLQGAKUYUDL-UHFFFAOYSA-N,c1cc(Cl)c2c(c1)ccc1c2cc(Cl)cc1,C14H8Cl2,xtb2,247.124,8,14,2,-43.169727512054,-42.986945695364,0.00017642006,-43.039545336158,5.950665931534,5.824536795964,0.001016612774,5.521433696686,0.169283978909,-10.471,-7.5392,2.931767195783,3.413,172.111197,-0.796 1.081 -0.022,0.02325544,0.01132821,0.007733553
2-0153,pubchemPCH,IUXZLQGAKUYUDL-UHFFFAOYSA-N,c1cc(Cl)c2c(c1)ccc1c2cc(Cl)cc1,C14H8Cl2,r2scan,247.124,8,14,2,-1458.559125930195,-1458.3721895126,0.0001722253,-1458.4235384786,4.701940646057,4.5716557598,0.0010920041,4.2460746288,0.1738727558,-5.6851,-2.2621,3.423,3.29134,195.26282,-0.75931 1.04800 -0.04327,0.022902,0.011139,0.007609
2-0153,pubchemPCH,IUXZLQGAKUYUDL-UHFFFAOYSA-N,c1cc(Cl)c2c(c1)ccc1c2cc(Cl)cc1,C14H8Cl2,d4tzvp,247.124,8,14,2,-1459.206807251573,-1459.019870834,0.0001722253,-1459.0712198,4.642606644731,4.5123217584,0.0010920041,4.1867406282,0.1738727558,-8.3532,0.2395,8.5927,3.39452,190.43186,-0.79816 1.06984 -0.04341,0.022902,0.011139,0.007609
2-0154,pubchemPCH,IVGPRQSZXKDUPG-UHFFFAOYSA-N,Clc1ccc2-c3c4c(-c2c1)cccc4ccc3,C16H9Cl,xtb2,236.701,9,16,1,-43.411720565937,-43.207987400668,0.000172468257,-43.259408811592,6.695108613712,6.552749186323,0.001110066437,6.221782877436,0.190624768576,-10.4074,-7.9237,2.483747659395,2.614,177.18013,1.003 -0.230 -0.000,0.03296772,0.00914481,0.007158999
2-0154,pubchemPCH,IVGPRQSZXKDUPG-UHFFFAOYSA-N,Clc1ccc2-c3c4c(-c2c1)cccc4ccc3,C16H9Cl,r2scan,236.701,9,16,1,-1075.185873330477,-1074.9778615875,0.0001692158,-1075.0283132903,5.280977474571,5.1343382239,0.0011915142,4.7790881756,0.1952272342,-5.6762,-2.7987,2.8775,2.47367,208.29555,0.94694 -0.22452 -0.00005,0.032739,0.00904,0.007084
2-0154,pubchemPCH,IVGPRQSZXKDUPG-UHFFFAOYSA-N,Clc1ccc2-c3c4c(-c2c1)cccc4ccc3,C16H9Cl,d4tzvp,236.701,9,16,1,-1075.871251680214,-1075.6632399372,0.0001692158,-1075.71369164,5.208705120046,5.0620658692,0.0011915142,4.7068158218,0.1952272342,-8.3642,-0.397,7.9672,2.39697,202.36873,0.91264 -0.23744 -0.00005,0.032739,0.00904,0.007084
2-0155,pubchemPCH,IYEYYGIUDOIKTP-UHFFFAOYSA-N,c1ccc2c(c1)c1c(Cl)ccc(c1c(c2)Cl)Cl,C14H7Cl3,xtb2,281.569,7,14,3,-47.209180308572,-47.034728605083,0.000186555487,-47.09035012363,5.901076357027,5.783277334658,0.001023381743,5.478156067472,0.15967593713,-10.4972,-7.8289,2.668291154535,1.884,184.581816,-0.673 -0.304 -0.067,0.01668655,0.01031961,0.006573579
2-0155,pubchemPCH,IYEYYGIUDOIKTP-UHFFFAOYSA-N,c1ccc2c(c1)c1c(Cl)ccc(c1c(c2)Cl)Cl,C14H7Cl3,r2scan,281.569,7,14,3,-1918.120911876272,-1917.9424525736,0.0001812661,-1917.9964970508,4.647004989366,4.525197218,0.0010998751,4.1972693325,0.1641523331,-5.7145,-2.5969,3.1176,1.8812,209.67388,-0.63884 -0.35712 -0.11004,0.016068,0.010198,0.006565
2-0155,pubchemPCH,IYEYYGIUDOIKTP-UHFFFAOYSA-N,c1ccc2c(c1)c1c(Cl)ccc(c1c(c2)Cl)Cl,C14H7Cl3,d4tzvp,281.569,7,14,3,-1918.804799260533,-1918.6263399578,0.0001812661,-1918.680384435,4.593322691451,4.47151492,0.0010998751,4.1435870352,0.1641523331,-8.4071,-0.1237,8.2834,1.91858,203.76944,-0.64504 -0.37736 -0.10614,0.016068,0.010198,0.006565
2-0156,pubchemPCH,IYTUPMAAMJDPCR-UHFFFAOYSA-N,c1ccc2c(c1)c1cccc(c1cc2)Cl,C14H9Cl,xtb2,212.679,9,14,1,-39.123990508611,-38.932906783947,0.000166083321,-38.982424526251,5.993971299116,5.859540255572,0.001010045117,5.558395303465,0.178856593233,-10.3676,-7.3206,3.047057032372,1.982,159.925828,-0.608 -0.488 -0.000,0.04210762,0.0122971,0.009517588
2-0156,pubchemPCH,IYTUPMAAMJDPCR-UHFFFAOYSA-N,c1ccc2c(c1)c1cccc(c1cc2)Cl,C14H9Cl,r2scan,212.679,9,14,1,-998.98694412721,-998.791611697,0.0001622096,-998.8399744922,4.74648044584,4.607799547,0.001085108,4.2842745109,0.1834823342,-5.6663,-2.1081,3.5582,1.90121,179.06209,-0.58408 -0.46725 -0.00000,0.041741,0.012144,0.009407
2-0156,pubchemPCH,IYTUPMAAMJDPCR-UHFFFAOYSA-N,c1ccc2c(c1)c1cccc(c1cc2)Cl,C14H9Cl,d4tzvp,212.679,9,14,1,-999.599733846987,-999.4044014168,0.0001622096,-999.452764212,4.682809202385,4.5441283034,0.001085108,4.2206032682,0.1834823342,-8.345,0.4149,8.7599,1.89428,176.15548,-0.57382 -0.47554 -0.00000,0.041741,0.012144,0.009407
2-0157,pubchemPCH,JBGYMWMXODYRGI-UHFFFAOYSA-N,c1c(Cl)cc2c(c1)c1c3ccccc3c3c(c1c1c2cccc1)cccc3,C26H15Cl,xtb2,362.859,15,26,1,-67.902841646063,-67.567013195981,0.000224861094,-67.634055531266,10.892369396572,10.65568313845,0.00183833303,10.107584144354,0.315233684201,-9.994,-7.5437,2.450359692452,2.371,279.796564,-0.862 -0.285 -0.215,0.00856762,0.004827647,0.003443774
2-0157,pubchemPCH,JBGYMWMXODYRGI-UHFFFAOYSA-N,c1c(Cl)cc2c(c1)c1c3ccccc3c3c(c1c1c2cccc1)cccc3,C26H15Cl,r2scan,362.859,15,26,1,-1459.805236919226,-1459.4615204769,0.0002165473,-1459.5260840459,8.59455007653,8.3499738141,0.0019731561,7.7616771568,0.3238916588,-5.2433,-2.4058,2.8375,2.18782,345.20756,-0.79625 -0.25147 -0.20883,0.008503,0.004769,0.003393
2-0157,pubchemPCH,JBGYMWMXODYRGI-UHFFFAOYSA-N,c1c(Cl)cc2c(c1)c1c3ccccc3c3c(c1c1c2cccc1)cccc3,C26H15Cl,d4tzvp,362.859,15,26,1,-1460.897460741363,-1460.5537442991,0.0002165473,-1460.6183078681,8.476627439325,8.2320511767,0.0019731561,7.6437545209,0.3238916588,-7.7023,-0.0238,7.6785,2.20223,330.93223,-0.80159 -0.25259 -0.21051,0.008503,0.004769,0.003393
2-0158,pubchemPCH,JBMJXNXDSZCJBG-UHFFFAOYSA-N,Clc1ccc2c(c1Cl)c1cc(Cl)ccc1cc2,C14H7Cl3,xtb2,281.569,7,14,3,-47.217518255358,-47.043047566929,0.0001871499,-47.098846309616,5.909414303813,5.791596296504,0.00102278733,5.486652253458,0.159661106741,-10.5558,-7.7337,2.822140011869,3.943,184.53872,0.065 1.549 -0.057,0.01865395,0.008435469,0.005892246
2-0158,pubchemPCH,JBMJXNXDSZCJBG-UHFFFAOYSA-N,Clc1ccc2c(c1Cl)c1cc(Cl)ccc1cc2,C14H7Cl3,r2scan,281.569,7,14,3,-1918.135863560491,-1917.9573708668,0.0001815717,-1918.0115064639,4.661956673585,4.5401155112,0.0010995695,4.2122787456,0.1641994014,-5.749,-2.3981,3.3509,3.78954,212.08708,0.07868 1.48679 -0.07747,0.018532,0.008238,0.005802
2-0158,pubchemPCH,JBMJXNXDSZCJBG-UHFFFAOYSA-N,Clc1ccc2c(c1Cl)c1cc(Cl)ccc1cc2,C14H7Cl3,d4tzvp,281.569,7,14,3,-1918.819486649779,-1918.6409939561,0.0001815717,-1918.6951295532,4.608010080697,4.4861689183,0.0010995695,4.1583321534,0.1641994014,-8.4208,0.0773,8.4981,3.92556,205.24388,0.09418 1.53941 -0.08073,0.018532,0.008238,0.005802
2-0159,pubchemPCH,JCMYEZRBOFNZTI-UHFFFAOYSA-N,c1ccc2c(c1)cc1c(c2)cc2c(c1)cc1c(c2)cc2c(c1)c(Cl)ccc2,C26H15Cl,xtb2,362.859,15,26,1,-67.881611516329,-67.547983538538,0.000227033684,-67.6156736313,10.871139266838,10.636653481007,0.00183616044,10.089202244388,0.31275323235,-9.3756,-8.4448,0.930812551689,2.061,279.88078,0.484 0.650 0.000,0.02389374,0.00204607,0.001884681
2-0159,pubchemPCH,JCMYEZRBOFNZTI-UHFFFAOYSA-N,c1ccc2c(c1)cc1c(c2)cc2c(c1)cc1c(c2)cc2c(c1)c(Cl)ccc2,C26H15Cl,r2scan,362.859,15,26,1,-1459.783829605053,-1459.4428030499,0.0002196913,-1459.5083040078,8.573142762357,8.3312563871,0.0019700121,7.7438971187,0.320815242,-4.4168,-3.502,0.9148,1.91283,440.96511,0.44304 0.60832 -0.00009,0.023528,0.002032,0.001871
2-0159,pubchemPCH,JCMYEZRBOFNZTI-UHFFFAOYSA-N,c1ccc2c(c1)cc1c(c2)cc2c(c1)cc1c(c2)cc2c(c1)c(Cl)ccc2,C26H15Cl,d4tzvp,362.859,15,26,1,-1460.857175662708,-1460.5161491075,0.0002196913,-1460.5816500654,8.43634236067,8.1944559851,0.0019700121,7.6070967182,0.320815242,-6.5797,-1.4142,5.1655,1.86358,417.16741,0.39386 0.61840 -0.00011,0.023528,0.002032,0.001871
2-0160,pubchemPCH,JCPFBWTXQOTCFA-UHFFFAOYSA-N,c1ccc2c(c1)cc1c3c2c2cc(Cl)ccc2c2c3c(cc1)ccc2,C24H13Cl,xtb2,336.821,13,24,1,-62.615820014522,-62.315429826327,0.00021077494,-62.378272374598,9.978906035633,9.768215925878,0.001663136878,9.272351664358,0.28179002465,-9.9188,-7.8026,2.116204331223,2.217,257.2126,0.429 -0.731 -0.205,0.008584558,0.007042416,0.004002056
2-0160,pubchemPCH,JCPFBWTXQOTCFA-UHFFFAOYSA-N,c1ccc2c(c1)cc1c3c2c2cc(Cl)ccc2c2c3c(cc1)ccc2,C24H13Cl,r2scan,336.821,13,24,1,-1382.420185483107,-1382.11294894,0.0002036622,-1382.1736708248,7.868474186317,7.6509359012,0.001785325,7.1186411049,0.2892668726,-5.1249,-2.6771,2.4478,2.04526,323.33155,0.40961 -0.66186 -0.20404,0.008459,0.006988,0.003945
2-0160,pubchemPCH,JCPFBWTXQOTCFA-UHFFFAOYSA-N,c1ccc2c(c1)cc1c3c2c2cc(Cl)ccc2c2c3c(cc1)ccc2,C24H13Cl,d4tzvp,336.821,13,24,1,-1383.422022523057,-1383.11478598,0.0002036622,-1383.1755078647998,7.756870191265,7.539331906,0.001785325,7.007037111,0.2892668726,-7.5152,-0.3842,7.131,2.09728,311.58114,0.42582 -0.67684 -0.20342,0.008459,0.006988,0.003945
2-0161,pubchemPCH,JDPKCYMVSKDOGS-UHFFFAOYSA-N,c1ccc2c(c1)c(Cl)ccc2Cl,C10H6Cl2,xtb2,197.064,6,10,2,-33.577676936186,-33.442992438013,0.000153786005,-33.488843735317,4.318766368998,4.226571381665,0.000743558267,4.004879483887,0.124005309696,-10.5434,-7.6475,2.895916764379,0.708,132.209128,0.279 0.000 -0.000,0.03501863,0.0202247,0.01282039
2-0161,pubchemPCH,JDPKCYMVSKDOGS-UHFFFAOYSA-N,c1ccc2c(c1)c(Cl)ccc2Cl,C10H6Cl2,r2scan,197.064,6,10,2,-1304.956057150575,-1304.8182047048,0.000150616,-1304.863110867,3.422279586879,3.3269157896,0.0007994848,3.0885493198,0.1275320201,-5.7836,-2.4031,3.3805,0.69459,140.19949,0.27327 0.00005 -0.00001,0.034602,0.019889,0.01263
2-0161,pubchemPCH,JDPKCYMVSKDOGS-UHFFFAOYSA-N,c1ccc2c(c1)c(Cl)ccc2Cl,C10H6Cl2,d4tzvp,197.064,6,10,2,-1305.443971816705,-1305.3061193709002,0.000150616,-1305.3510255331,3.381074095675,3.2857102983,0.0007994848,3.0473438291,0.1275320201,-8.5474,0.1385,8.6859,0.64053,138.67156,0.25200 0.00004 -0.00001,0.034602,0.019889,0.01263
2-0162,pubchemPCH,JHBKHLUZVFWLAG-UHFFFAOYSA-N,c1c(Cl)c(Cl)cc(c1Cl)Cl,C6H2Cl4,xtb2,215.894,2,6,4,-32.073921269527,-32.004005676834,0.000153364543,-32.049731315471,2.597076973621,2.555487721488,0.000482099959,2.411749618711,0.059379814508,-11.1655,-7.5879,3.577602341412,0.0,117.406301,-0.000 -0.000 -0.000,0.03916055,0.01547632,0.01109253
2-0162,pubchemPCH,JHBKHLUZVFWLAG-UHFFFAOYSA-N,c1c(Cl)c(Cl)cc(c1Cl)Cl,C6H2Cl4,r2scan,215.894,2,6,4,-2070.501038046956,-2070.4293080509,0.0001495409,-2070.473893676,2.057224998166,2.0138207677,0.0005202549,1.8587066944,0.0615885092,-6.5035,-2.1386,4.3649,0.0,119.92571,0.00000 0.00000 -0.00000,0.037789,0.015397,0.010939
2-0162,pubchemPCH,JHBKHLUZVFWLAG-UHFFFAOYSA-N,c1c(Cl)c(Cl)cc(c1Cl)Cl,C6H2Cl4,d4tzvp,215.894,2,6,4,-2070.902341572661,-2070.8306115766004,0.0001495409,-2070.8751972017003,2.046194812963,2.0027905826,0.0005202549,1.8476765095,0.0615885092,-9.4902,0.607,10.0972,0.0,116.97068,0.00000 0.00000 0.00000,0.037789,0.015397,0.010939
2-0163,pubchemPCH,JHHIIVZIQDVYSP-UHFFFAOYSA-N,c1ccc2c(c1)cc1c(c2)cc2c(c1)ccc(c2Cl)Cl,C18H10Cl2,xtb2,297.184,10,18,2,-52.755249573655,-52.525115242957,0.000197341499,-52.583952610759,7.576036979803,7.416718500505,0.001291379897,7.031693583245,0.213691934977,-9.8942,-8.2902,1.603969519222,3.46,212.282555,1.128 0.762 -0.000,0.03097367,0.004310529,0.003783929
2-0163,pubchemPCH,JHHIIVZIQDVYSP-UHFFFAOYSA-N,c1ccc2c(c1)cc1c(c2)cc2c(c1)ccc(c2Cl)Cl,C18H10Cl2,r2scan,297.184,10,18,2,-1612.160719480361,-1611.9254746853,0.0001914504,-1611.9825556283,5.980126475781,5.8156960949,0.0013869076,5.4021894759,0.2193347396,-4.9687,-3.1779,1.7908,3.13299,281.30872,1.00129 0.71882 -0.00008,0.030561,0.004274,0.00375
2-0163,pubchemPCH,JHHIIVZIQDVYSP-UHFFFAOYSA-N,c1ccc2c(c1)cc1c(c2)cc2c(c1)ccc(c2Cl)Cl,C18H10Cl2,d4tzvp,297.184,10,18,2,-1612.961387409367,-1612.7261426143,0.0001914504,-1612.7832235572998,5.895883916713,5.7314535357,0.0013869076,5.3179469177,0.2193347396,-7.3646,-0.9035,6.4611,3.16879,270.51794,1.00435 0.73857 -0.00008,0.030561,0.004274,0.00375
2-0164,pubchemPCH,JHKLUUFTHIWTKX-UHFFFAOYSA-N,c1c(Cl)c(Cl)c2c(c1Cl)c(Cl)c(cc2Cl)Cl,C10H2Cl6,xtb2,334.844,2,10,6,-49.7510634887,-49.649764385549,0.000196547591,-49.708365049842,4.135983437412,4.077173845101,0.000768414265,3.848071131668,0.08529852992,-10.8723,-8.5257,2.34662859597,0.064,182.38916,0.000 -0.000 -0.025,0.01286314,0.007887133,0.004905265
2-0164,pubchemPCH,JHKLUUFTHIWTKX-UHFFFAOYSA-N,c1c(Cl)c(Cl)c2c(c1Cl)c(Cl)c(cc2Cl)Cl,C10H2Cl6,r2scan,334.844,2,10,6,-3143.237029794669,-3143.1333090989,0.0001895005,-3143.1898086619,3.236365819901,3.1751337725,0.0008282475,2.9281916407,0.0883077455,-6.0179,-3.1629,2.855,0.1922,204.18243,-0.00000 0.00000 -0.07562,0.012382,0.007789,0.004974
2-0164,pubchemPCH,JHKLUUFTHIWTKX-UHFFFAOYSA-N,c1c(Cl)c(Cl)c2c(c1Cl)c(Cl)c(cc2Cl)Cl,C10H2Cl6,d4tzvp,334.844,2,10,6,-3143.868769156372,-3143.7650484606,0.0001895005,-3143.8215480236,3.216767586382,3.1555355392,0.0008282475,2.9085934076,0.0883077455,-8.769,-0.7146,8.0544,0.20836,196.18267,-0.00000 -0.00000 -0.08198,0.012382,0.007789,0.004974
2-0165,pubchemPCH,JIWJBIYGLNHPGM-UHFFFAOYSA-N,Clc1cc2c(cc1Cl)cc1c(c2)cc2c(c1)c(Cl)c(cc2)Cl,C18H8Cl4,xtb2,366.074,8,18,4,-60.856382389189,-60.642711961326,0.00021851887,-60.707863362311,7.499085053287,7.356230476824,0.001304011318,6.967439501425,0.194557779449,-10.2034,-8.6308,1.572523613728,2.3,236.897176,0.312 0.849 0.000,0.02327461,0.002374487,0.002154667
2-0165,pubchemPCH,JIWJBIYGLNHPGM-UHFFFAOYSA-N,Clc1cc2c(cc1Cl)cc1c(c2)cc2c(c1)c(Cl)c(cc2)Cl,C18H8Cl4,r2scan,366.074,8,18,4,-2531.320974624006,-2531.102761088,0.0002115904,-2531.1658467609,5.90693841389,5.759539292,0.0014005912,5.3419528715,0.1996680686,-5.2032,-3.4536,1.7496,2.20956,326.67773,0.30687 0.81333 0.00002,0.022804,0.002359,0.002138
2-0165,pubchemPCH,JIWJBIYGLNHPGM-UHFFFAOYSA-N,Clc1cc2c(cc1Cl)cc1c(c2)cc2c(c1)c(Cl)c(cc2)Cl,C18H8Cl4,d4tzvp,366.074,8,18,4,-2532.192340548277,-2531.9741270123,0.0002115904,-2532.0372126852,5.832285131143,5.6848860093,0.0014005912,5.2672995896,0.1996680686,-7.6111,-1.2027,6.4084,2.3226,308.23968,0.36264 0.83873 0.00002,0.022804,0.002359,0.002138
2-0166,pubchemPCH,JJUBOIZMFUOURK-UHFFFAOYSA-N,c1c(Cl)cc2-c3c(-c2c1)cc(cc3)Cl,C12H6Cl2,xtb2,221.086,6,12,2,-37.797609583154,-37.650942708991,0.000164011321,-37.699842684358,4.952106273236,4.852649966673,0.000839739207,4.602281721558,0.134652077578,-10.3843,-7.8283,2.556024436835,0.0,146.567678,0.000 0.000 -0.000,0.07592196,0.007284335,0.006646624
2-0166,pubchemPCH,JJUBOIZMFUOURK-UHFFFAOYSA-N,c1c(Cl)cc2-c3c(-c2c1)cc(cc3)Cl,C12H6Cl2,r2scan,221.086,6,12,2,-1381.079078433699,-1380.9297223907,0.0001614378,-1380.9778550815,3.880868695467,3.7787222619,0.0009020754,3.5097684009,0.137577001,-5.4507,-2.5954,2.8553,0.0,176.99223,-0.00000 0.00000 -0.00000,0.07534,0.007176,0.006552
2-0166,pubchemPCH,JJUBOIZMFUOURK-UHFFFAOYSA-N,c1c(Cl)cc2-c3c(-c2c1)cc(cc3)Cl,C12H6Cl2,d4tzvp,221.086,6,12,2,-1381.640716741746,-1381.4913606987,0.0001614378,-1381.5394933895,3.83219710515,3.7300506715,0.0009020754,3.4610968111,0.137577001,-8.1736,0.0488,8.2224,1E-05,169.91326,-0.00000 -0.00000 -0.00000,0.07534,0.007176,0.006552
2-0167,pubchemPCH,JPQLLIUTUFJWMH-UHFFFAOYSA-N,c1c(Cl)c(Cl)c2c(c1Cl)cc(c(c2Cl)Cl)Cl,C10H2Cl6,xtb2,334.844,2,10,6,-49.758533419035,-49.65716935767,0.000198673325,-49.716403809475,4.143453367747,4.084578817222,0.000766288531,3.856109891301,0.085358552965,-10.9694,-8.5165,2.452850841164,1.365,182.411834,0.243 0.479 -0.000,0.01277123,0.007601473,0.004765208
2-0167,pubchemPCH,JPQLLIUTUFJWMH-UHFFFAOYSA-N,c1c(Cl)c(Cl)c2c(c1Cl)cc(c(c2Cl)Cl)Cl,C10H2Cl6,r2scan,334.844,2,10,6,-3143.249865231149,-3143.1461165257,0.0001920554,-3143.2033778487,3.249201256381,3.1879411993,0.0008256926,2.9417608275,0.0883140378,-6.1045,-3.0974,3.0071,1.34444,204.92148,0.23805 0.47169 -0.02480,0.012549,0.007464,0.004734
2-0167,pubchemPCH,JPQLLIUTUFJWMH-UHFFFAOYSA-N,c1c(Cl)c(Cl)c2c(c1Cl)cc(c(c2Cl)Cl)Cl,C10H2Cl6,d4tzvp,334.844,2,10,6,-3143.882048891083,-3143.7783001857,0.0001920554,-3143.8355615087,3.230047321093,3.1687872643,0.0008256926,2.9226068927,0.0883140378,-8.8617,-0.6391,8.2226,1.50983,196.65137,0.27761 0.52453 -0.02519,0.012549,0.007464,0.004734
2-0168,pubchemPCH,JRZKNHITLINYHV-UHFFFAOYSA-N,c1ccc2c(c1Cl)c(Cl)c(c(c2Cl)Cl)Cl,C10H3Cl5,xtb2,300.399,3,10,5,-45.70988416629,-45.600131456722,0.000187987063,-45.656179799521,4.183846486027,4.116583287299,0.000760070397,3.889968298033,0.0950758534,-10.8392,-8.2918,2.547438736865,2.628,169.903328,0.769 0.691 -0.000,0.01574971,0.0106496,0.006353502
2-0168,pubchemPCH,JRZKNHITLINYHV-UHFFFAOYSA-N,c1ccc2c(c1Cl)c(Cl)c(c(c2Cl)Cl)Cl,C10H3Cl5,r2scan,300.399,3,10,5,-2683.669430627375,-2683.5571201057,0.0001819773,-2683.6113766472,3.285488255375,3.2156663821,0.0008188589,2.9715234945,0.0981829962,-5.975,-2.8954,3.0796,2.52431,185.98895,0.68073 0.72117 0.05290,0.015449,0.010451,0.006294
2-0168,pubchemPCH,JRZKNHITLINYHV-UHFFFAOYSA-N,c1ccc2c(c1Cl)c(Cl)c(c(c2Cl)Cl)Cl,C10H3Cl5,d4tzvp,300.399,3,10,5,-2684.266747931502,-2684.1544374098003,0.0001819773,-2684.2086939513,3.262022323752,3.1922004506,0.0008188589,2.9480575633,0.0981829962,-8.7254,-0.428,8.2974,2.69798,180.1538,0.72773 0.77073 0.05528,0.015449,0.010451,0.006294
2-0169,pubchemPCH,JSWQSSWTOFDQCS-UHFFFAOYSA-N,Clc1cc(Cl)c2-c3c(-c2c1Cl)c(Cl)ccc3Cl,C12H3Cl5,xtb2,324.421,3,12,5,-49.943130489675,-49.820897670398,0.000200861223,-49.880784444005,4.830500066682,4.755477815005,0.000853602493,4.500976231147,0.106061969346,-10.98,-8.5015,2.478564736169,1.439,183.414159,0.565 -0.037 -0.000,0.01109057,0.008293401,0.004745083
2-0169,pubchemPCH,JSWQSSWTOFDQCS-UHFFFAOYSA-N,Clc1cc(Cl)c2-c3c(-c2c1Cl)c(Cl)ccc3Cl,C12H3Cl5,r2scan,324.421,3,12,5,-2759.816395236722,-2759.6923804383,0.0001958478,-2759.7507724524,3.768020690186,3.6912155011,0.0009184008,3.4173941663,0.1079798225,-6.0017,-3.1874,2.8143,1.33851,214.62635,0.52438 -0.04834 -0.00001,0.010984,0.008228,0.004704
2-0169,pubchemPCH,JSWQSSWTOFDQCS-UHFFFAOYSA-N,Clc1cc(Cl)c2-c3c(-c2c1Cl)c(Cl)ccc3Cl,C12H3Cl5,d4tzvp,324.421,3,12,5,-2760.484640417007,-2760.3606256186,0.0001958478,-2760.4190176327,3.734292893691,3.6574877048,0.0009184008,3.3836663703,0.1079798225,-8.7649,-0.5426,8.2223,1.42393,205.44723,0.55604 -0.06818 -0.00002,0.010984,0.008228,0.004704
2-0170,pubchemPCH,JTPNRXUCIXHOKM-UHFFFAOYSA-N,c1cccc2c1cccc2Cl,C10H7Cl,xtb2,162.619,7,10,1,-29.526988213012,-29.384122711508,0.000144574147,-29.427227493502,4.357120016849,4.256744026185,0.000735865729,4.037345658758,0.133472943899,-10.4192,-7.3462,3.072927152404,1.804,119.950541,0.342 0.622 -0.000,0.05132811,0.030733,0.01922307
2-0170,pubchemPCH,JTPNRXUCIXHOKM-UHFFFAOYSA-N,c1cccc2c1cccc2Cl,C10H7Cl,r2scan,162.619,7,10,1,-845.375262829018,-845.2290649438,0.000142141,-845.2714442717,3.45820686809,3.3544976314,0.000791048,3.118646593,0.1371430519,-5.6921,-2.1452,3.5469,1.72482,125.65516,0.32888 0.59356 -0.00000,0.050882,0.030252,0.018972
2-0170,pubchemPCH,JTPNRXUCIXHOKM-UHFFFAOYSA-N,c1cccc2c1cccc2Cl,C10H7Cl,d4tzvp,162.619,7,10,1,-845.827655829263,-845.6814579441001,0.000142141,-845.7238372720001,3.412034070473,3.3083248337,0.000791048,3.072473796,0.1371430519,-8.4545,0.4254,8.8799,1.74712,125.28149,0.32047 0.60808 -0.00000,0.050882,0.030252,0.018972
2-0171,pubchemPCH,JUAJOFDIFOXJCH-UHFFFAOYSA-N,c1c(Cl)c(Cl)cc2c1cc(Cl)c1c2cccc1,C14H7Cl3,xtb2,281.569,7,14,3,-47.224669024514,-47.050095126878,0.000188115011,-47.106181617294,5.916565072969,5.798643856453,0.001021822219,5.493987561136,0.159666845638,-10.6697,-7.817,2.852741064348,2.242,184.571615,-0.815 -0.338 0.000,0.02147515,0.006809823,0.005170306
2-0171,pubchemPCH,JUAJOFDIFOXJCH-UHFFFAOYSA-N,c1c(Cl)c(Cl)cc2c1cc(Cl)c1c2cccc1,C14H7Cl3,r2scan,281.569,7,14,3,-1918.147340659769,-1917.9690260458,0.0001832033,-1918.0236481242,4.673433772863,4.5517706902,0.0010979379,4.2244204059,0.1638179431,-5.8924,-2.4885,3.4039,2.10494,215.351,-0.75718 -0.33537 0.00001,0.021026,0.006772,0.005122
2-0171,pubchemPCH,JUAJOFDIFOXJCH-UHFFFAOYSA-N,c1c(Cl)c(Cl)cc2c1cc(Cl)c1c2cccc1,C14H7Cl3,d4tzvp,281.569,7,14,3,-1918.831106547467,-1918.6527919335,0.0001832033,-1918.7074140119,4.619629978385,4.4979668957,0.0010979379,4.1706166121,0.1638179431,-8.5797,0.0115,8.5912,2.12371,208.01596,-0.77250 -0.31833 0.00001,0.021026,0.006772,0.005122
2-0172,pubchemPCH,JVWDDQWEBVSDFI-UHFFFAOYSA-N,c1ccc2-c3c4c(-c2c1)cc1c(c4ccc3Cl)cccc1,C20H11Cl,xtb2,286.761,11,20,1,-53.012486930486,-52.760398290799,0.000193654701,-52.818136439858,8.335723964929,8.159172233402,0.001384568555,7.74636311766,0.236063417033,-10.4051,-7.8523,2.552802801881,2.242,217.219591,0.758 0.451 -0.000,0.01649244,0.007572638,0.005189731