id,subset,key,smiles,formula,level,mwt,nH,nC,nCl,E,H,S,G,dE,dH,dS,dG,zpe,homo,lumo,gap,Mu,alpha,tMu,rotA,rotB,rotC
2-0077,pubchemPCH,DLDAJQLZVHENOR-UHFFFAOYSA-N,c1c(Cl)c(Cl)c2c(c1)c1cccc(c1cc2)Cl,C14H7Cl3,r2scan,281.569,7,14,3,-1918.146026587051,-1917.9676054809,0.0001826536,-1918.022063655,4.672119700145,4.5503501253,0.0010984876,4.2228359367,0.1639591673,-5.9457,-2.4931,3.4526,2.77323,212.27344,-0.55320 -0.94041 0.00003,0.027461,0.00616,0.005032
2-0077,pubchemPCH,DLDAJQLZVHENOR-UHFFFAOYSA-N,c1c(Cl)c(Cl)c2c(c1)c1cccc(c1cc2)Cl,C14H7Cl3,d4tzvp,281.569,7,14,3,-1918.830224124472,-1918.6518030183,0.0001826536,-1918.7062611924,4.61874755539,4.4969779805,0.0010984876,4.1694637926,0.1639591673,-8.6315,0.0192,8.6507,2.87204,205.84063,-0.57993 -0.96975 0.00003,0.027461,0.00616,0.005032
2-0078,pubchemPCH,DLTBLLHAQLBHDR-UHFFFAOYSA-N,c1cc(Cl)c2c(c1Cl)c(Cl)c(cc2)Cl,C10H4Cl4,xtb2,265.954,4,10,4,-41.667986520233,-41.549938406929,0.000177464624,-41.60284948472,4.230991210995,4.155432608531,0.00075368844,3.930720399918,0.10475584097,-10.7121,-8.1153,2.596771489313,1.876,157.126221,0.654 0.343 -0.000,0.0196031,0.01193419,0.00741811
2-0078,pubchemPCH,DLTBLLHAQLBHDR-UHFFFAOYSA-N,c1cc(Cl)c2c(c1Cl)c(Cl)c(cc2)Cl,C10H4Cl4,r2scan,265.954,4,10,4,-2224.09857841187,-2223.9779129723,0.0001733063,-2224.029584239,3.331357642638,3.2531808515,0.0008106181,3.0114949548,0.1077385632,-5.8986,-2.7726,3.126,1.92909,171.17561,0.65175 0.38868 -0.01205,0.01899,0.01176,0.007299
2-0078,pubchemPCH,DLTBLLHAQLBHDR-UHFFFAOYSA-N,c1cc(Cl)c2c(c1Cl)c(Cl)c(cc2)Cl,C10H4Cl4,d4tzvp,265.954,4,10,4,-2224.658472329992,-2224.5378068904006,0.0001733063,-2224.5894781571005,3.301022684482,3.2228458934,0.0008106181,2.9811599971,0.1077385632,-8.6507,-0.2819,8.3688,2.07969,166.60927,0.70841 0.40917 -0.01367,0.01899,0.01176,0.007299
2-0079,pubchemPCH,DNEXIJUBUIJEDK-UHFFFAOYSA-N,c1c(Cl)cc2c(c1)c1ccccc1c1c2cc(Cl)cc1,C18H10Cl2,xtb2,297.184,10,18,2,-52.772535555674,-52.541300312764,0.000198603482,-52.600513940923,7.593322961822,7.432903570312,0.001290117914,7.048254913409,0.214569766511,-10.5609,-7.4397,3.121197720104,3.413,212.05303,1.343 0.002 -0.000,0.009385562,0.008805426,0.004543122
2-0079,pubchemPCH,DNEXIJUBUIJEDK-UHFFFAOYSA-N,c1c(Cl)cc2c(c1)c1ccccc1c1c2cc(Cl)cc1,C18H10Cl2,r2scan,297.184,10,18,2,-1612.180141778714,-1611.9448408061,0.0001971592,-1612.003623829,5.999548774134,5.8350622157,0.0013811988,5.4232576766,0.2187164672,-5.8401,-2.2554,3.5847,3.26892,249.73531,1.28607 0.00155 0.00001,0.009294,0.008726,0.004501
2-0079,pubchemPCH,DNEXIJUBUIJEDK-UHFFFAOYSA-N,c1c(Cl)cc2c(c1)c1ccccc1c1c2cc(Cl)cc1,C18H10Cl2,d4tzvp,297.184,10,18,2,-1612.989921118782,-1612.7546201462,0.0001971592,-1612.8134031691,5.924417626128,5.7599310676,0.0013811988,5.3481265295,0.2187164672,-8.4973,0.261,8.7583,3.32957,241.20298,1.30993 0.00158 0.00001,0.009294,0.008726,0.004501
2-0080,pubchemPCH,DQBALUCEJSYHEZ-UHFFFAOYSA-N,c1c(Cl)c(Cl)cc2c1cc1c(c2)c(Cl)c(cc1)Cl,C14H6Cl4,xtb2,316.014,6,14,4,-51.26672690004,-51.100816916035,0.000198303769,-51.159941184685,5.86958057747,5.760323274585,0.001028537857,5.453664711841,0.14969131026,-10.5246,-8.4467,2.077880383041,2.277,196.980998,0.288 -0.848 -0.000,0.02650012,0.004063791,0.003523467
2-0080,pubchemPCH,DQBALUCEJSYHEZ-UHFFFAOYSA-N,c1c(Cl)c(Cl)cc2c1cc1c(c2)c(Cl)c(cc1)Cl,C14H6Cl4,r2scan,316.014,6,14,4,-2377.71824479383,-2377.5487817931,0.0001925469,-2377.6061896388,4.627616304156,4.5148048347,0.0011055061,4.185198052,0.1537310129,-5.5914,-3.1735,2.4179,2.20829,245.12038,0.28823 -0.81959 -0.00003,0.02594,0.004034,0.003491
2-0080,pubchemPCH,DQBALUCEJSYHEZ-UHFFFAOYSA-N,c1c(Cl)c(Cl)cc2c1cc1c(c2)c(Cl)c(cc1)Cl,C14H6Cl4,d4tzvp,316.014,6,14,4,-2378.434229403764,-2378.2647664031,0.0001925469,-2378.3221742488004,4.575476872442,4.4626654031,0.0011055061,4.133058621,0.1537310129,-8.1615,-0.7946,7.3669,2.31655,234.26725,0.33388 -0.84803 -0.00002,0.02594,0.004034,0.003491
2-0081,pubchemPCH,DQTVGIPYVRZVJK-UHFFFAOYSA-N,Clc1c(Cl)c(Cl)c2c(c1)c1ccccc1cc2,C14H7Cl3,xtb2,281.569,7,14,3,-47.219943598428,-47.045417652979,0.000188236233,-47.101540285798,5.911839646883,5.793966382554,0.001021700997,5.48934622964,0.15959142796,-10.6809,-7.7553,2.925578753131,3.732,184.797154,-1.468 0.001 0.000,0.020813,0.007868613,0.005709911
2-0081,pubchemPCH,DQTVGIPYVRZVJK-UHFFFAOYSA-N,Clc1c(Cl)c(Cl)c2c(c1)c1ccccc1cc2,C14H7Cl3,r2scan,281.569,7,14,3,-1918.142165436998,-1917.9638184101,0.0001824915,-1918.0182282403,4.668258550092,4.5465630545,0.0010986497,4.219000522,0.1638859138,-5.8767,-2.4345,3.4422,3.39158,213.05149,-1.33416 0.02096 0.00002,0.020405,0.007824,0.005655
2-0081,pubchemPCH,DQTVGIPYVRZVJK-UHFFFAOYSA-N,Clc1c(Cl)c(Cl)c2c(c1)c1ccccc1cc2,C14H7Cl3,d4tzvp,281.569,7,14,3,-1918.827111527796,-1918.6487645009,0.0001824915,-1918.7031743311,4.615634958714,4.4939394631,0.0010986497,4.1663769313,0.1638859138,-8.5546,0.0629,8.6175,3.48642,206.33685,-1.37139 0.02578 0.00003,0.020405,0.007824,0.005655
2-0082,pubchemPCH,DQWHHBPENMBJGR-UHFFFAOYSA-N,c1ccc2c(c1)c1c3c(Cl)cccc3c3c4c1c(c2)ccc4ccc3,C24H13Cl,xtb2,336.821,13,24,1,-62.610141363262,-62.310060227138,0.000209387033,-62.37248897114,9.973227384373,9.762846326689,0.001664524785,9.2665682609,0.281522002258,-9.8622,-7.7483,2.113914784812,1.639,257.301903,-0.506 0.175 0.359,0.0104729,0.007365808,0.004651656
2-0082,pubchemPCH,DQWHHBPENMBJGR-UHFFFAOYSA-N,c1ccc2c(c1)c1c3c(Cl)cccc3c3c4c1c(c2)ccc4ccc3,C24H13Cl,r2scan,336.821,13,24,1,-1382.408791214612,-1382.1018417142,0.0002024179,-1382.1621925964,7.857079917822,7.6398286754,0.0017865693,7.1071628765,0.2890679926,-5.0674,-2.6152,2.4522,1.48401,316.95721,-0.47300 0.07135 0.33473,0.010169,0.007314,0.004597
2-0082,pubchemPCH,DQWHHBPENMBJGR-UHFFFAOYSA-N,c1ccc2c(c1)c1c3c(Cl)cccc3c3c4c1c(c2)ccc4ccc3,C24H13Cl,d4tzvp,336.821,13,24,1,-1383.411240988411,-1383.1042914880002,0.0002024179,-1383.1646423702002,7.746088656619,7.528837414,0.0017865693,6.9961716164,0.2890679926,-7.4708,-0.3117,7.1591,1.56474,306.35728,-0.51170 0.05566 0.33769,0.010169,0.007314,0.004597
2-0083,pubchemPCH,DVMMPINJSIGZTF-UHFFFAOYSA-N,Clc1ccc2c(c1)cc1c(c2)c2cc(Cl)ccc2cc1,C18H10Cl2,xtb2,297.184,10,18,2,-52.77027567499,-52.539638993762,0.000197988578,-52.598669288419,7.591063081138,7.43124225131,0.001290732818,7.046410260905,0.2142016666,-10.2842,-7.9171,2.367100919195,1.813,212.049885,0.388 -0.598 0.000,0.02360545,0.00415322,0.00353182
2-0083,pubchemPCH,DVMMPINJSIGZTF-UHFFFAOYSA-N,Clc1ccc2c(c1)cc1c(c2)c2cc(Cl)ccc2cc1,C18H10Cl2,r2scan,297.184,10,18,2,-1612.177918929266,-1611.9424510064,0.0001926936,-1611.9999026093,5.997325924686,5.832672416,0.0013856644,5.4195364569,0.2194871637,-5.4383,-2.7549,2.6834,1.69692,270.02332,0.38489 -0.54549 0.00001,0.023344,0.004119,0.003501
2-0083,pubchemPCH,DVMMPINJSIGZTF-UHFFFAOYSA-N,Clc1ccc2c(c1)cc1c(c2)c2cc(Cl)ccc2cc1,C18H10Cl2,d4tzvp,297.184,10,18,2,-1612.982389862662,-1612.7469219398,0.0001926936,-1612.8043735427002,5.916886370008,5.7522328612,0.0013856644,5.3390969031,0.2194871637,-7.9821,-0.3372,7.6449,1.76341,257.93599,0.39598 -0.56966 0.00001,0.023344,0.004119,0.003501
2-0084,pubchemPCH,DVSBCHGOCVCAJH-UHFFFAOYSA-N,c1c(Cl)c2-c3c(-c2c(c1)Cl)c(Cl)ccc3Cl,C12H4Cl4,xtb2,289.976,4,12,4,-45.897326737057,-45.766775333791,0.00018528407,-45.822017779394,4.873738685089,4.790397849423,0.00085227525,4.536291983222,0.115775422286,-10.9225,-8.3139,2.60859704886,0.0,170.810488,-0.000 0.000 -0.000,0.01333296,0.01078074,0.005960893
2-0084,pubchemPCH,DVSBCHGOCVCAJH-UHFFFAOYSA-N,c1c(Cl)c2-c3c(-c2c(c1)Cl)c(Cl)ccc3Cl,C12H4Cl4,r2scan,289.976,4,12,4,-2300.239549791627,-2300.1070424105,0.0001812732,-2300.1610890124,3.807896847859,3.7225990761,0.0009160636,3.4494745948,0.1178391088,-5.9744,-3.0541,2.9203,0.0,196.73497,0.00000 -0.00000 -0.00000,0.013219,0.010705,0.005915
2-0084,pubchemPCH,DVSBCHGOCVCAJH-UHFFFAOYSA-N,c1c(Cl)c2-c3c(-c2c(c1)Cl)c(Cl)ccc3Cl,C12H4Cl4,d4tzvp,289.976,4,12,4,-2300.87186933853,-2300.7393619574,0.0001812732,-2300.7934085593,3.768797777454,3.6835000058,0.0009160636,3.4103755249,0.1178391088,-8.7419,-0.3832,8.3587,3E-05,189.95033,-0.00001 0.00000 -0.00000,0.013219,0.010705,0.005915
2-0085,pubchemPCH,DWBQZSYTSNYEEJ-UHFFFAOYSA-N,c1c(Cl)ccc2c1cc(cc2)Cl,C10H6Cl2,xtb2,197.064,6,10,2,-33.579494677636,-33.444964651431,0.000154233369,-33.490949330259,4.320584110448,4.228543595083,0.000743110903,4.006985078829,0.123843018507,-10.7648,-7.6924,3.072351198645,1.706,132.152149,-0.000 0.671 -0.000,0.06306182,0.01148526,0.009715758
2-0085,pubchemPCH,DWBQZSYTSNYEEJ-UHFFFAOYSA-N,c1c(Cl)ccc2c1cc(cc2)Cl,C10H6Cl2,r2scan,197.064,6,10,2,-1304.958239258427,-1304.8207569009,0.0001511891,-1304.8658339265,3.424461694731,3.3294679857,0.0007989117,3.0912723793,0.1271160285,-5.9799,-2.3944,3.5855,1.75762,145.89615,-0.00001 0.69149 -0.00007,0.062233,0.011373,0.009616
2-0085,pubchemPCH,DWBQZSYTSNYEEJ-UHFFFAOYSA-N,c1c(Cl)ccc2c1cc(cc2)Cl,C10H6Cl2,d4tzvp,197.064,6,10,2,-1305.445202273332,-1305.3077199158,0.0001511891,-1305.3527969414,3.382304552302,3.2873108432,0.0007989117,3.0491152374,0.1271160285,-8.7573,0.1912,8.9485,1.76783,142.86831,-0.00001 0.69550 -0.00007,0.062233,0.011373,0.009616
2-0086,pubchemPCH,DXIVAUYLFKDGID-UHFFFAOYSA-N,c1c(Cl)cc2-c3c(-c2c1)ccc1c3cccc1,C16H9Cl,xtb2,236.701,9,16,1,-43.337844228673,-43.134968940697,0.000176783874,-43.1876770527,6.621232276448,6.479730726352,0.00110575082,6.150051118544,0.18931644595,-9.9036,-7.8713,2.032280906617,2.464,174.232572,-0.846 -0.473 -0.000,0.03447349,0.007791102,0.006354882
2-0086,pubchemPCH,DXIVAUYLFKDGID-UHFFFAOYSA-N,c1c(Cl)cc2-c3c(-c2c1)ccc1c3cccc1,C16H9Cl,r2scan,236.701,9,16,1,-1075.104518114755,-1074.8976324706,0.0001729192,-1074.949188328,5.199622258849,5.054109107,0.0011878108,4.6999632133,0.1936248839,-5.0023,-2.7331,2.2692,2.474,216.27257,-0.84800 -0.47776 -0.00005,0.034148,0.007698,0.006282
2-0086,pubchemPCH,DXIVAUYLFKDGID-UHFFFAOYSA-N,c1c(Cl)cc2-c3c(-c2c1)ccc1c3cccc1,C16H9Cl,d4tzvp,236.701,9,16,1,-1075.788492387539,-1075.5816067433,0.0001729192,-1075.6331626007,5.125945827371,4.9804326753,0.0011878108,4.6262867825,0.1936248839,-7.5745,-0.191,7.3835,2.55347,208.02448,-0.87004 -0.50222 -0.00005,0.034148,0.007698,0.006282
2-0087,pubchemPCH,DYMCZHRBZXJXAO-UHFFFAOYSA-N,c1ccc2c(c1)c1cc(Cl)c(cc1c1c2cccc1)Cl,C18H10Cl2,xtb2,297.184,10,18,2,-52.768849691089,-52.537623401313,0.000198190547,-52.596713912865,7.589637097237,7.429226658861,0.001290530849,7.044454885351,0.21455346426,-10.5601,-7.3883,3.171794166979,3.449,212.259651,1.357 -0.000 -0.000,0.01471047,0.007058868,0.004769978
2-0087,pubchemPCH,DYMCZHRBZXJXAO-UHFFFAOYSA-N,c1ccc2c(c1)c1cc(Cl)c(cc1c1c2cccc1)Cl,C18H10Cl2,r2scan,297.184,10,18,2,-1612.176066376431,-1611.9407931777,0.000197365,-1611.9996375452,5.995473371851,5.8310145873,0.001380993,5.4192713928,0.2186308834,-5.8561,-2.1949,3.6612,3.15807,248.6302,1.24245 -0.00002 -0.00003,0.014515,0.007015,0.004729
2-0087,pubchemPCH,DYMCZHRBZXJXAO-UHFFFAOYSA-N,c1ccc2c(c1)c1cc(Cl)c(cc1c1c2cccc1)Cl,C18H10Cl2,d4tzvp,297.184,10,18,2,-1612.98689939565,-1612.7516261969,0.000197365,-1612.8104705643998,5.921395902996,5.7569371183,0.001380993,5.3451939248,0.2186308834,-8.5107,0.3269,8.8376,3.23116,240.40125,1.27121 -0.00001 -0.00003,0.014515,0.007015,0.004729
2-0088,pubchemPCH,DZHZYPCCEISGSQ-UHFFFAOYSA-N,c1ccc2c(c1Cl)cc(cc2Cl)Cl,C10H5Cl3,xtb2,231.509,5,10,3,-37.628266580218,-37.501894309681,0.000167207563,-37.551747244497,4.280313642005,4.196430882308,0.000747041105,3.973700576381,0.114367052164,-10.7589,-7.9327,2.826165852926,1.808,144.558697,0.569 0.427 0.000,0.02019706,0.01619685,0.008988556
2-0088,pubchemPCH,DZHZYPCCEISGSQ-UHFFFAOYSA-N,c1ccc2c(c1Cl)cc(cc2Cl)Cl,C10H5Cl3,r2scan,231.509,5,10,3,-1764.537177613855,-1764.407828224,0.0001634042,-1764.4565471917,3.386678447391,3.299817706,0.0008036084,3.060221776,0.1177317484,-5.9695,-2.6362,3.3333,1.80138,156.84369,0.55062 0.44618 0.00001,0.01999,0.01593,0.008865
2-0088,pubchemPCH,DZHZYPCCEISGSQ-UHFFFAOYSA-N,c1ccc2c(c1Cl)cc(cc2Cl)Cl,C10H5Cl3,d4tzvp,231.509,5,10,3,-1765.0602901893,-1764.9309407994,0.0001634042,-1764.9796597671002,3.35011650603,3.2632557646,0.0008036084,3.0236598351,0.1177317484,-8.7264,-0.1012,8.6252,1.85158,153.534,0.57100 0.45232 0.00002,0.01999,0.01593,0.008865
2-0089,pubchemPCH,FBQRSKUTLUEBFN-UHFFFAOYSA-N,c1c(Cl)cc2-c3c4c(-c2c1)cc1c(c4ccc3)cccc1,C20H11Cl,xtb2,286.761,11,20,1,-53.012094363203,-52.760147196065,0.000193346554,-52.817793471008,8.335331397646,8.158921138668,0.001384876702,7.74602014881,0.235931090347,-10.3626,-7.8626,2.499973693124,2.841,217.176803,1.117 0.024 -0.000,0.02451746,0.005352941,0.004393665
2-0089,pubchemPCH,FBQRSKUTLUEBFN-UHFFFAOYSA-N,c1c(Cl)cc2-c3c4c(-c2c1)cc1c(c4ccc3)cccc1,C20H11Cl,r2scan,286.761,11,20,1,-1228.801394769322,-1228.5443838071,0.0001890344,-1228.6007444075,6.573091192974,6.3916156059,0.0014858242,5.9486169902,0.2413493002,-5.6323,-2.7307,2.9016,2.6342,271.8328,1.03580 0.03375 -0.00003,0.02432,0.005299,0.004351
2-0089,pubchemPCH,FBQRSKUTLUEBFN-UHFFFAOYSA-N,c1c(Cl)cc2-c3c4c(-c2c1)cc1c(c4ccc3)cccc1,C20H11Cl,d4tzvp,286.761,11,20,1,-1229.646664408355,-1229.3896534462,0.0001890344,-1229.4460140466,6.482814962375,6.3013393752,0.0014858242,5.8583407606,0.2413493002,-8.23,-0.3666,7.8634,2.5311,260.45594,0.99428 0.05480 -0.00004,0.02432,0.005299,0.004351
2-0090,pubchemPCH,FCTJKWJLMFBOSQ-UHFFFAOYSA-N,c1ccc2-c3c4c(-c2c1)cc(Cl)cc4ccc3,C16H9Cl,xtb2,236.701,9,16,1,-43.411237227785,-43.2075421578,0.000172829174,-43.259071175953,6.69462527556,6.552303943455,0.00110970552,6.221445241797,0.1905559449,-10.4869,-7.965,2.521982160463,2.106,177.203346,-0.539 -0.629 -0.000,0.02313158,0.01139562,0.007634525
2-0090,pubchemPCH,FCTJKWJLMFBOSQ-UHFFFAOYSA-N,c1ccc2-c3c4c(-c2c1)cc(Cl)cc4ccc3,C16H9Cl,r2scan,236.701,9,16,1,-1075.185306368694,-1074.9773594022,0.0001695807,-1075.0279198991,5.280410512788,5.1338360386,0.0011911493,4.7786947844,0.1951250444,-5.7554,-2.8398,2.9156,1.96664,206.72707,-0.49763 -0.59246 -0.00001,0.022922,0.011276,0.007558
2-0090,pubchemPCH,FCTJKWJLMFBOSQ-UHFFFAOYSA-N,c1ccc2-c3c4c(-c2c1)cc(Cl)cc4ccc3,C16H9Cl,d4tzvp,236.701,9,16,1,-1075.870956763364,-1075.6630097969,0.0001695807,-1075.7135702938,5.208410203196,5.0618357289,0.0011911493,4.7066944756,0.1951250444,-8.4027,-0.4277,7.975,2.03171,201.31044,-0.53028 -0.59809 -0.00001,0.022922,0.011276,0.007558
2-0091,pubchemPCH,FCYUOZLLPFPCHT-UHFFFAOYSA-N,Clc1c(Cl)c(Cl)c(c2c1c(Cl)c1c(c2)cc2c(c1Cl)c(Cl)c1c(c2)cccc1Cl)Cl,C22H6Cl8,xtb2,553.914,6,22,8,-86.604322985632,-86.376218077971,0.000276198035,-86.458566522111,8.930705152298,8.787579266317,0.001609638299,8.307665606439,0.200891015166,-10.1413,-9.1388,1.002569812587,4.997,327.086215,1.303 -1.472 -0.001,0.00791475,0.001561748,0.001317346
2-0091,pubchemPCH,FCYUOZLLPFPCHT-UHFFFAOYSA-N,Clc1c(Cl)c(Cl)c(c2c1c(Cl)c1c(c2)cc2c(c1Cl)c(Cl)c1c(c2)cccc1Cl)Cl,C22H6Cl8,r2scan,553.914,6,22,8,-4523.172507074993,-4522.9392104385,0.0002645326,-4523.0180808334,6.968176733362,6.8198573937,0.0017294248,6.3042291674,0.2070388181,-5.0933,-4.0768,1.0165,5.00454,461.89361,1.03939 -1.67186 -0.03320,0.00775,0.001547,0.001312
2-0091,pubchemPCH,FCYUOZLLPFPCHT-UHFFFAOYSA-N,Clc1c(Cl)c(Cl)c(c2c1c(Cl)c1c(c2)cc2c(c1Cl)c(Cl)c1c(c2)cccc1Cl)Cl,C22H6Cl8,d4tzvp,553.914,6,22,8,-4524.342887869521,-4524.109591233,0.0002645326,-4524.1884616279,6.892425717615,6.7441063782,0.0017294248,6.2284781525,0.2070388181,-7.3909,-2.0078,5.3831,5.43983,433.96732,1.09652 -1.83767 -0.02939,0.00775,0.001547,0.001312
2-0092,pubchemPCH,FEIKEVSWLMYFFF-UHFFFAOYSA-N,c1cc(Cl)c2c(c1Cl)c(Cl)c(cc2Cl)Cl,C10H3Cl5,xtb2,300.399,3,10,5,-45.706144678637,-45.596489952809,0.000189192683,-45.652897751192,4.180106998374,4.112941783386,0.000758864777,3.886686249704,0.094992059647,-10.7557,-8.331,2.424778313012,1.315,169.737323,0.490 -0.166 -0.006,0.01515544,0.01026074,0.006126419
2-0092,pubchemPCH,FEIKEVSWLMYFFF-UHFFFAOYSA-N,c1cc(Cl)c2c(c1Cl)c(Cl)c(cc2Cl)Cl,C10H3Cl5,r2scan,300.399,3,10,5,-2683.661204438608,-2683.5490203289,0.0001822279,-2683.6033515765,3.277262066608,3.2075666053,0.0008186083,2.9634984238,0.0980316653,-5.9085,-3.0142,2.8943,1.25981,187.07966,0.46305 -0.17428 -0.02948,0.01451,0.010135,0.006206
2-0092,pubchemPCH,FEIKEVSWLMYFFF-UHFFFAOYSA-N,c1cc(Cl)c2c(c1Cl)c(Cl)c(cc2Cl)Cl,C10H3Cl5,d4tzvp,300.399,3,10,5,-2684.256687989517,-2684.1445038798,0.0001822279,-2684.1988351273994,3.251962381767,3.1822669206,0.0008186083,2.9381987394,0.0980316653,-8.6563,-0.555,8.1013,1.34227,180.96689,0.49337 -0.18552 -0.03224,0.01451,0.010135,0.006206
2-0093,pubchemPCH,FIROJQOSBYRDDC-UHFFFAOYSA-N,c1ccc2-c3c(-c2c1)cc(c1c3cccc1)Cl,C16H9Cl,xtb2,236.701,9,16,1,-43.337155476313,-43.134204022779,0.000176826244,-43.186924767356,6.620543524088,6.478965808434,0.00110570845,6.1492988332,0.189357368557,-9.8524,-7.8669,1.985527603542,1.85,174.265672,0.425 0.591 -0.000,0.02643626,0.01008429,0.007299752
2-0093,pubchemPCH,FIROJQOSBYRDDC-UHFFFAOYSA-N,c1ccc2-c3c(-c2c1)cc(c1c3cccc1)Cl,C16H9Cl,r2scan,236.701,9,16,1,-1075.103232272572,-1074.8962124184,0.0001730049,-1074.9477938261,5.198336416666,5.0526890548,0.0011877251,4.6985687114,0.1937319214,-4.9662,-2.7366,2.2296,1.60703,214.90781,0.31988 0.54535 -0.00001,0.026094,0.009963,0.00721
2-0093,pubchemPCH,FIROJQOSBYRDDC-UHFFFAOYSA-N,c1ccc2-c3c(-c2c1)cc(c1c3cccc1)Cl,C16H9Cl,d4tzvp,236.701,9,16,1,-1075.787562452924,-1075.5805425986998,0.0001730049,-1075.6321240064,5.125015892756,4.9793685307,0.0011877251,4.6252481882,0.1937319214,-7.5285,-0.2289,7.2996,1.60075,207.43923,0.31293 0.54652 -0.00000,0.026094,0.009963,0.00721
2-0094,pubchemPCH,FKDIWXZNKAZCBY-UHFFFAOYSA-N,c1cccc2c1c(Cl)c1c(c2Cl)cccc1,C14H8Cl2,xtb2,247.124,8,14,2,-43.166896057268,-42.984225970557,0.000172245775,-43.03558104823,5.947834476748,5.821817071157,0.001020787059,5.517469408758,0.169102222833,-10.1084,-8.077,2.031469131934,0.0,172.210772,-0.000 -0.000 0.000,0.01856547,0.01512693,0.008335369
2-0094,pubchemPCH,FKDIWXZNKAZCBY-UHFFFAOYSA-N,c1cccc2c1c(Cl)c1c(c2Cl)cccc1,C14H8Cl2,r2scan,247.124,8,14,2,-1458.557506740726,-1458.3706364229,0.0001678462,-1458.4206797695,4.700321456588,4.5701026701,0.0010963832,4.2432159197,0.1737195933,-5.2833,-2.9434,2.3399,0.00014,199.69795,0.00000 -0.00006 -0.00000,0.018234,0.015,0.00823
2-0094,pubchemPCH,FKDIWXZNKAZCBY-UHFFFAOYSA-N,c1cccc2c1c(Cl)c1c(c2Cl)cccc1,C14H8Cl2,d4tzvp,247.124,8,14,2,-1459.203185339949,-1459.0163150221,0.0001678462,-1459.0663583687,4.638984733107,4.5087659465,0.0010963832,4.1818791969,0.1737195933,-7.8251,-0.5806,7.2445,0.0,196.43148,0.00000 -0.00000 -0.00000,0.018234,0.015,0.00823
2-0095,pubchemPCH,FKENMBQCLFMKES-UHFFFAOYSA-N,Clc1c(Cl)c(Cl)c(c2c1c1c(Cl)c(Cl)c(c(c1c1c2c(Cl)c(Cl)c(c1Cl)Cl)Cl)Cl)Cl,C18Cl12,xtb2,641.634,0,18,12,-93.187759811036,-93.040618685308,0.000291091315,-93.127407560963,7.118123506934,7.041798232606,0.001366674041,6.634324366589,0.117319550377,-11.1732,-8.9646,2.208594351862,0.001,337.948676,0.000 -0.000 -0.000,0.002891644,0.00289163,0.001572778
2-0095,pubchemPCH,FKENMBQCLFMKES-UHFFFAOYSA-N,Clc1c(Cl)c(Cl)c(c2c1c1c(Cl)c(Cl)c(c(c1c1c2c(Cl)c(Cl)c(c1Cl)Cl)Cl)Cl)Cl,C18Cl12,r2scan,641.634,0,18,12,-6207.870670292637,-6207.7197227625,0.0002801268,-6207.8032425531,5.522861260377,5.4427281441,0.0014673492,5.0052377157,0.1224852664,-6.216,-3.669,2.547,0.00227,415.59766,0.00076 -0.00041 0.00022,0.002857,0.002856,0.001576
2-0095,pubchemPCH,FKENMBQCLFMKES-UHFFFAOYSA-N,Clc1c(Cl)c(Cl)c(c2c1c1c(Cl)c(Cl)c(c(c1c1c2c(Cl)c(Cl)c(c1Cl)Cl)Cl)Cl)Cl,C18Cl12,d4tzvp,641.634,0,18,12,-6209.040994819303,-6208.8900472892,0.0002801268,-6208.9735670798,5.502731704249,5.4225985886,0.0014673492,4.9851081602,0.1224852664,-8.9456,-1.2861,7.6595,0.00213,385.31131,0.00070 -0.00045 -0.00010,0.002857,0.002856,0.001576
2-0096,pubchemPCH,FLNDZGIZTQZZGN-UHFFFAOYSA-N,Clc1c(Cl)cc2c(c1Cl)cc1c(c2)cccc1Cl,C14H6Cl4,xtb2,316.014,6,14,4,-51.265008915387,-51.099049689843,0.000198298162,-51.158172286966,5.867862592817,5.758556048393,0.001028543464,5.451895814122,0.149727716969,-10.4839,-8.4224,2.061514956948,3.897,197.087582,-1.083 -1.086 -0.000,0.01874885,0.005601874,0.004313166