id,subset,key,smiles,formula,level,mwt,nH,nC,nCl,E,H,S,G,dE,dH,dS,dG,zpe,homo,lumo,gap,Mu,alpha,tMu,rotA,rotB,rotC
2-0363,pubchemPCH,UGUZUUUNTAPFCG-UHFFFAOYSA-N,c1c(Cl)cc2c(c1)c1ccc3c(c1cc2)ccc(c3)Cl,C18H10Cl2,r2scan,297.184,10,18,2,-1612.181078415214,-1611.9453047855,0.000190569,-1612.0021229323,6.000485410634,5.8355261951,0.001387789,5.4217567799,0.2197253217,-5.6734,-2.4893,3.1841,0.0,264.83255,-0.00000 -0.00000 0.00000,0.041798,0.00357,0.003289
2-0363,pubchemPCH,UGUZUUUNTAPFCG-UHFFFAOYSA-N,c1c(Cl)cc2c(c1)c1ccc3c(c1cc2)ccc(c3)Cl,C18H10Cl2,d4tzvp,297.184,10,18,2,-1612.987534805567,-1612.7517611759,0.000190569,-1612.8085793227,5.922031312913,5.7570720973,0.001387789,5.3433026831,0.2197253217,-8.2526,-0.0243,8.2283,2E-05,253.68009,0.00000 0.00000 0.00001,0.041798,0.00357,0.003289
2-0364,pubchemPCH,UJYFBCRKAVJNHV-UHFFFAOYSA-N,c1c(Cl)cc2c(c1Cl)cc1c(c2)ccc2c1cccc2,C18H10Cl2,xtb2,297.184,10,18,2,-52.768458040593,-52.537755750257,0.000197527432,-52.596648554216,7.589245446741,7.429359007805,0.001291193964,7.044389526702,0.214258522072,-10.2836,-7.9446,2.338977760919,2.848,212.190534,1.018 -0.468 -0.000,0.0214389,0.005137504,0.004144369
2-0364,pubchemPCH,UJYFBCRKAVJNHV-UHFFFAOYSA-N,c1c(Cl)cc2c(c1Cl)cc1c(c2)ccc2c1cccc2,C18H10Cl2,r2scan,297.184,10,18,2,-1612.176456123679,-1611.9407445044,0.0001924135,-1611.9981126015,5.995863119099,5.830965914,0.0013859445,5.4177464491,0.2197435193,-5.4416,-2.7896,2.652,2.60064,265.11918,0.94200 -0.39933 -0.00001,0.021124,0.005094,0.004104
2-0364,pubchemPCH,UJYFBCRKAVJNHV-UHFFFAOYSA-N,c1c(Cl)cc2c(c1Cl)cc1c(c2)ccc2c1cccc2,C18H10Cl2,d4tzvp,297.184,10,18,2,-1612.981493257228,-1612.7457816379,0.0001924135,-1612.803149735,5.915989764574,5.7510925593,0.0013859445,5.3378730954,0.2197435193,-7.992,-0.3833,7.6087,2.56271,254.42943,0.91523 -0.42293 -0.00002,0.021124,0.005094,0.004104
2-0365,pubchemPCH,UMPSCTHEIMMLHC-UHFFFAOYSA-N,Clc1ccc2-c3c4c(-c2c1)ccc(c4ccc3)Cl,C16H8Cl2,xtb2,271.146,8,16,2,-47.464596020919,-47.26897962576,0.000183687571,-47.323746075179,6.658941697669,6.52469904039,0.001115751519,6.192037724337,0.181152718792,-10.5713,-8.1565,2.414877878943,1.412,189.40444,0.253 -0.494 -0.000,0.02826976,0.006308498,0.005157568
2-0365,pubchemPCH,UMPSCTHEIMMLHC-UHFFFAOYSA-N,Clc1ccc2-c3c4c(-c2c1)ccc(c4ccc3)Cl,C16H8Cl2,r2scan,271.146,8,16,2,-1534.768613537959,-1534.5689981479,0.000179626,-1534.6225536465,5.246996079285,5.1087531815,0.0011980158,4.7515646633,0.1854952322,-5.8206,-2.996,2.8246,1.3642,226.47432,0.23770 -0.48120 0.00001,0.02804,0.006235,0.005101
2-0365,pubchemPCH,UMPSCTHEIMMLHC-UHFFFAOYSA-N,Clc1ccc2-c3c4c(-c2c1)ccc(c4ccc3)Cl,C16H8Cl2,d4tzvp,271.146,8,16,2,-1535.48906659312,-1535.289451203,0.000179626,-1535.3430067016,5.179244070712,5.0410011728,0.0011980158,4.6838126554,0.1854952322,-8.475,-0.6176,7.8574,1.32395,218.20481,0.17417 -0.49089 0.00001,0.02804,0.006235,0.005101
2-0366,pubchemPCH,UOFQRPYRCXCPQF-UHFFFAOYSA-N,Clc1cc(Cl)c2-c3c(-c2c1)c(Cl)c(c(c3Cl)Cl)Cl,C12H2Cl6,xtb2,358.866,2,12,6,-53.985674674991,-53.871866999484,0.000211174315,-53.934828621555,4.784001880973,4.717404773066,0.000860193797,4.460937992011,0.096266609239,-10.966,-8.653,2.313050547762,1.192,196.307109,-0.431 -0.185 0.000,0.01156465,0.005310499,0.00363932
2-0366,pubchemPCH,UOFQRPYRCXCPQF-UHFFFAOYSA-N,Clc1cc(Cl)c2-c3c(-c2c1)c(Cl)c(c(c3Cl)Cl)Cl,C12H2Cl6,r2scan,358.866,2,12,6,-3219.390539412552,-3219.275027882,0.0002054491,-3219.3362825431,3.725443263248,3.657141342,0.0009257113,3.3811403885,0.0981864865,-5.941,-3.2456,2.6954,0.97626,236.62348,-0.31534 -0.21928 0.00000,0.011429,0.00527,0.003607
2-0366,pubchemPCH,UOFQRPYRCXCPQF-UHFFFAOYSA-N,Clc1cc(Cl)c2-c3c(-c2c1)c(Cl)c(c(c3Cl)Cl)Cl,C12H2Cl6,d4tzvp,358.866,2,12,6,-3220.095082380618,-3219.97957085,0.0002054491,-3220.0408255111,3.697458895062,3.629156974,0.0009257113,3.3531560207,0.0981864865,-8.6838,-0.6529,8.0309,1.07019,223.64604,-0.36034 -0.21778 -0.00001,0.011429,0.00527,0.003607
2-0367,pubchemPCH,UPLARRCYSDMYDD-UHFFFAOYSA-N,c1ccc2c(c1)cc1c(c2)cc2c(c1)c(Cl)ccc2,C18H11Cl,xtb2,262.739,11,18,1,-48.706145448813,-48.4677866429,0.000186680337,-48.523445385403,7.615975225986,7.448432271473,0.001285136663,7.065268774575,0.223274529586,-9.7445,-8.1187,1.625766226146,1.928,199.918387,-0.393 -0.649 -0.000,0.03109034,0.005990482,0.005022707
2-0367,pubchemPCH,UPLARRCYSDMYDD-UHFFFAOYSA-N,c1ccc2c(c1)cc1c(c2)cc2c(c1)c(Cl)ccc2,C18H11Cl,r2scan,262.739,11,18,1,-1152.58201839072,-1152.3383209074,0.0001814785,-1152.3924287234,6.018146988908,5.8452639198,0.0013799677,5.4338264395,0.2291061106,-4.855,-3.0661,1.7889,1.79963,260.4737,-0.35799 -0.61084 -0.00005,0.030658,0.00594,0.004976
2-0367,pubchemPCH,UPLARRCYSDMYDD-UHFFFAOYSA-N,c1ccc2c(c1)cc1c(c2)cc2c(c1)c(Cl)ccc2,C18H11Cl,d4tzvp,262.739,11,18,1,-1153.346530409744,-1153.1028329264002,0.0001814785,-1153.1569407424,5.92830287933,5.75541981,0.0013799677,5.3439823308,0.2291061106,-7.2423,-0.7799,6.4624,1.78732,252.83115,-0.32767 -0.62216 -0.00006,0.030658,0.00594,0.004976
2-0368,pubchemPCH,UQYSMMCXWBISMG-UHFFFAOYSA-N,Clc1c(Cl)c(Cl)c2c(c1Cl)cc(c1c2c(Cl)c(Cl)c(c1Cl)Cl)Cl,C14HCl9,xtb2,488.239,1,14,9,-71.478574527468,-71.354166891753,0.000248547387,-71.428271295267,5.636216349773,5.568461395178,0.001062816219,5.251582738993,0.101497071635,-11.0467,-8.7757,2.27102141474,0.736,260.181854,-0.072 0.275 0.052,0.007016997,0.003344189,0.002412656
2-0368,pubchemPCH,UQYSMMCXWBISMG-UHFFFAOYSA-N,Clc1c(Cl)c(Cl)c2c(c1Cl)cc(c1c2c(Cl)c(Cl)c(c1Cl)Cl)Cl,C14HCl9,r2scan,488.239,1,14,9,-4675.567320913535,-4675.4397484268,0.0002366832,-4675.5103155276,4.393084410021,4.3221634544,0.0011459288,3.9805045983,0.1056540499,-6.1101,-3.4022,2.7079,0.51407,310.15171,-0.09268 0.17187 0.05265,0.006896,0.003293,0.002419
2-0368,pubchemPCH,UQYSMMCXWBISMG-UHFFFAOYSA-N,Clc1c(Cl)c(Cl)c2c(c1Cl)cc(c1c2c(Cl)c(Cl)c(c1Cl)Cl)Cl,C14HCl9,d4tzvp,488.239,1,14,9,-4676.46836491153,-4676.3407924248,0.0002366832,-4676.4113595256,4.373232569008,4.3023116138,0.0011459288,3.9606527578,0.1056540499,-8.8135,-1.0218,7.7917,0.66367,292.0175,-0.13919 0.21240 0.06074,0.006896,0.003293,0.002419
2-0369,pubchemPCH,UVMHXYSILPJXPK-UHFFFAOYSA-N,c1ccc(c2c1cc(Cl)c(c2Cl)Cl)Cl,C10H4Cl4,xtb2,265.954,4,10,4,-41.665723875126,-41.547716855434,0.000177156964,-41.600536204216,4.228728565888,4.153211057036,0.0007539961,3.928407119414,0.10469559593,-10.7665,-8.0901,2.676314023441,3.406,157.288181,0.832 1.050 -0.000,0.02263232,0.01170402,0.007714543
2-0369,pubchemPCH,UVMHXYSILPJXPK-UHFFFAOYSA-N,c1ccc(c2c1cc(Cl)c(c2Cl)Cl)Cl,C10H4Cl4,r2scan,265.954,4,10,4,-2224.095890387051,-2223.9753852378,0.0001744797,-2224.0274063511,3.328669617819,3.250653117,0.0008094447,3.0093170669,0.1075394541,-5.9101,-2.7146,3.1955,3.2694,171.93178,0.75670 1.03988 -0.02272,0.022252,0.011418,0.007552
2-0369,pubchemPCH,UVMHXYSILPJXPK-UHFFFAOYSA-N,c1ccc(c2c1cc(Cl)c(c2Cl)Cl)Cl,C10H4Cl4,d4tzvp,265.954,4,10,4,-2224.656325178007,-2224.5358200287,0.0001744797,-2224.587841142,3.298875532497,3.2208590317,0.0008094447,2.979522982,0.1075394541,-8.6635,-0.2101,8.4534,3.47737,167.08165,0.80869 1.10322 -0.02354,0.022252,0.011418,0.007552
2-0370,pubchemPCH,UYILNPUKUYUFFQ-UHFFFAOYSA-N,c1ccc2c(c1)c1cccc3c1c1c2c(Cl)ccc1cc3,C20H11Cl,xtb2,286.761,11,20,1,-53.021496019793,-52.769083200148,0.000190714632,-52.82594476753,8.344733054236,8.167857142751,0.001387508624,7.754171445332,0.236639096094,-10.0956,-7.5823,2.513245356046,1.822,217.282966,0.605 -0.342 0.177,0.01362753,0.01056717,0.006103531
2-0370,pubchemPCH,UYILNPUKUYUFFQ-UHFFFAOYSA-N,c1ccc2c(c1)c1cccc3c1c1c2c(Cl)ccc1cc3,C20H11Cl,r2scan,286.761,11,20,1,-1228.809200446123,-1228.5513453237,0.0001855948,-1228.6066804031,6.580896869775,6.3985771225,0.0014892638,5.9545529858,0.2425391753,-5.3347,-2.4026,2.9321,1.65143,255.8825,0.54305 -0.29739 0.19692,0.013429,0.010459,0.006023
2-0370,pubchemPCH,UYILNPUKUYUFFQ-UHFFFAOYSA-N,c1ccc2c(c1)c1cccc3c1c1c2c(Cl)ccc1cc3,C20H11Cl,d4tzvp,286.761,11,20,1,-1229.654726976938,-1229.3968718545,0.0001855948,-1229.4522069339,6.490877530958,6.3085577835,0.0014892638,5.8645336479,0.2425391753,-7.8345,-0.0482,7.7863,1.72015,249.21156,0.57727 -0.29088 0.20034,0.013429,0.010459,0.006023
2-0371,pubchemPCH,VBJCEOMXGZVYKP-UHFFFAOYSA-N,c1ccc2c(c1)cc1c(c2Cl)c(Cl)ccc1,C14H8Cl2,xtb2,247.124,8,14,2,-43.160885885595,-42.978402663311,0.000176292147,-43.030964166926,5.941824305075,5.815993763911,0.001016740687,5.512852527454,0.168951865318,-10.0802,-8.0309,2.049305522397,2.971,172.273816,-0.398 -1.099 0.000,0.02546617,0.01196681,0.008141183
2-0371,pubchemPCH,VBJCEOMXGZVYKP-UHFFFAOYSA-N,c1ccc2c(c1)cc1c(c2Cl)c(Cl)ccc1,C14H8Cl2,r2scan,247.124,8,14,2,-1458.544484991545,-1458.3579890601,0.0001730177,-1458.4095742988,4.687299707407,4.5574553073,0.0010912117,4.232110449,0.1733359467,-5.2261,-2.8938,2.3323,2.98993,200.83186,-0.40133 -1.10572 -0.00272,0.025026,0.011725,0.008017
2-0371,pubchemPCH,VBJCEOMXGZVYKP-UHFFFAOYSA-N,c1ccc2c(c1)cc1c(c2Cl)c(Cl)ccc1,C14H8Cl2,d4tzvp,247.124,8,14,2,-1459.189791159762,-1459.0032952284,0.0001730177,-1459.0548804671,4.62559055292,4.4957461528,0.0010912117,4.1704012953,0.1733359467,-7.7709,-0.5161,7.2548,3.1136,196.87061,-0.39417 -1.15979 -0.00585,0.025026,0.011725,0.008017
2-0372,pubchemPCH,VCDFVPDREZWQJO-UHFFFAOYSA-N,c1c(Cl)cc2c(c1)cc1c(c2)ccc(c1)Cl,C14H8Cl2,xtb2,247.124,8,14,2,-43.170565077336,-42.988219226102,0.000174592745,-43.040274053143,5.951503496816,5.825810326702,0.001018440089,5.522162413671,0.168794590482,-10.2858,-8.0998,2.185956480017,0.0,172.093142,-0.000 0.000 0.000,0.05948506,0.005533627,0.00506267
2-0372,pubchemPCH,VCDFVPDREZWQJO-UHFFFAOYSA-N,c1c(Cl)cc2c(c1)cc1c(c2)ccc(c1)Cl,C14H8Cl2,r2scan,247.124,8,14,2,-1458.562967274317,-1458.3767135599,0.0001707905,-1458.4276347593,4.705781990179,4.5761798071,0.0010934389,4.2501709095,0.1730856146,-5.3943,-2.8986,2.4957,7E-05,212.72514,-0.00000 0.00003 -0.00000,0.05882,0.005485,0.005017
2-0372,pubchemPCH,VCDFVPDREZWQJO-UHFFFAOYSA-N,c1c(Cl)cc2c(c1)cc1c(c2)ccc(c1)Cl,C14H8Cl2,d4tzvp,247.124,8,14,2,-1459.20651822691,-1459.0202645125,0.0001707905,-1459.0711857119,4.642317620068,4.5127154369,0.0010934389,4.1867065401,0.1730856146,-7.9547,-0.4806,7.4741,1E-05,205.53906,0.00000 -0.00000 -0.00000,0.05882,0.005485,0.005017
2-0373,pubchemPCH,VCXHFEFJCBXXHL-UHFFFAOYSA-N,c1ccc2c(c1)c1ccc3c(c1cc2)c(Cl)ccc3,C18H11Cl,xtb2,262.739,11,18,1,-48.711836792828,-48.472665510107,0.000186007164,-48.528123546185,7.621666570001,7.45331113868,0.001285809836,7.069946935357,0.22415612764,-10.1335,-7.4992,2.634294206128,1.679,199.90266,-0.081 -0.634 -0.166,0.02555825,0.007941044,0.006168654
2-0373,pubchemPCH,VCXHFEFJCBXXHL-UHFFFAOYSA-N,c1ccc2c(c1)c1ccc3c(c1cc2)c(Cl)ccc3,C18H11Cl,r2scan,262.739,11,18,1,-1152.586008070319,-1152.3413504651,0.0001806232,-1152.3952032704,6.022136668507,5.8482934775,0.001380823,5.4366009865,0.2301548337,-5.3824,-2.3246,3.0578,1.58301,238.06234,-0.04043 -0.59690 -0.17305,0.02527,0.007818,0.006073
2-0373,pubchemPCH,VCXHFEFJCBXXHL-UHFFFAOYSA-N,c1ccc2c(c1)c1ccc3c(c1cc2)c(Cl)ccc3,C18H11Cl,d4tzvp,262.739,11,18,1,-1153.3577874525,-1153.1131298473,0.0001806232,-1153.1669826526,5.939559922086,5.7657167309,0.001380823,5.354024241,0.2301548337,-7.9515,0.1165,8.068,1.62004,231.44732,-0.00429 -0.61186 -0.17842,0.02527,0.007818,0.006073
2-0374,pubchemPCH,VFQKSZWWOKBPFF-UHFFFAOYSA-N,c1cc2c(Cl)ccc3-c4c(-c(c1)c23)cccc4,C16H9Cl,xtb2,236.701,9,16,1,-43.411972365918,-43.208127971886,0.000172548968,-43.25957344679,6.695360413693,6.552889757541,0.001109985726,6.221947512634,0.190706439666,-10.3755,-7.9257,2.449809443714,1.582,177.22996,-0.613 -0.111 -0.000,0.03304043,0.01006803,0.007716629
2-0374,pubchemPCH,VFQKSZWWOKBPFF-UHFFFAOYSA-N,c1cc2c(Cl)ccc3-c4c(-c(c1)c23)cccc4,C16H9Cl,r2scan,236.701,9,16,1,-1075.186071618327,-1074.9779491131,0.0001691491,-1075.0283809173,5.281175762421,5.1344257495,0.0011915809,4.7791558026,0.1953195118,-5.654,-2.8165,2.8375,1.44256,206.79428,-0.55789 -0.10421 -0.00003,0.032833,0.009948,0.007635
2-0374,pubchemPCH,VFQKSZWWOKBPFF-UHFFFAOYSA-N,c1cc2c(Cl)ccc3-c4c(-c(c1)c23)cccc4,C16H9Cl,d4tzvp,236.701,9,16,1,-1075.871805590689,-1075.6636830855,0.0001691491,-1075.7141148897,5.209259030521,5.0625090175,0.0011915809,4.7072390715,0.1953195118,-8.3065,-0.4263,7.8802,1.59805,201.31634,-0.62163 -0.09408 -0.00003,0.032833,0.009948,0.007635
2-0375,pubchemPCH,VFTLNRFRXWCJJK-UHFFFAOYSA-N,c1cc(Cl)c2c(c1Cl)cc(cc2Cl)Cl,C10H4Cl4,xtb2,265.954,4,10,4,-41.670429179878,-41.552382774479,0.000177581927,-41.605328825933,4.23343387064,4.157876976081,0.000753571137,3.933199741131,0.104735589835,-10.7797,-8.1541,2.625565839192,1.267,157.060203,0.438 -0.238 -0.000,0.01598355,0.01299333,0.007167077
2-0375,pubchemPCH,VFTLNRFRXWCJJK-UHFFFAOYSA-N,c1cc(Cl)c2c(c1Cl)cc(cc2Cl)Cl,C10H4Cl4,r2scan,265.954,4,10,4,-2224.102913443359,-2223.9822714173,0.0001752786,-2224.0345307452,3.335692674127,3.2575392965,0.0008086458,3.016441461,0.1076216729,-5.9398,-2.8266,3.1132,1.28786,172.28206,0.42460 -0.27646 -0.00004,0.015651,0.012773,0.007033
2-0375,pubchemPCH,VFTLNRFRXWCJJK-UHFFFAOYSA-N,c1cc(Cl)c2c(c1Cl)cc(cc2Cl)Cl,C10H4Cl4,d4tzvp,265.954,4,10,4,-2224.661983404071,-2224.541341378,0.0001752786,-2224.5936007058995,3.304533758561,3.226380381,0.0008086458,2.9852825459,0.1076216729,-8.6833,-0.3286,8.3547,1.38962,167.62012,0.44663 -0.31530 -0.00004,0.015651,0.012773,0.007033
2-0376,pubchemPCH,VHIRQQACBIOLGP-UHFFFAOYSA-N,c1c(Cl)c(Cl)cc2c1c(Cl)c1c(c2)cc2c(c1Cl)cc1c(c2)cccc1,C22H10Cl4,xtb2,416.134,10,22,4,-70.437012299951,-70.175556467539,0.000240386796,-70.24722779086,9.119563950717,8.943087139985,0.001577831954,8.472656541932,0.23940474643,-9.8466,-8.7463,1.100366152769,4.806,276.973304,-1.633 -0.953 0.002,0.01469178,0.002211538,0.001922209
2-0376,pubchemPCH,VHIRQQACBIOLGP-UHFFFAOYSA-N,c1c(Cl)c(Cl)cc2c1c(Cl)c1c(c2)cc2c(c1Cl)cc1c(c2)cccc1,C22H10Cl4,r2scan,416.134,10,22,4,-2684.905725600514,-2684.6385590887,0.000229756,-2684.7070608455,7.168281669956,6.9860924551,0.0016965542,6.4802646535,0.2458360172,-4.8478,-3.7001,1.1477,4.52373,407.25406,-1.48976 -0.97368 0.00597,0.014297,0.002198,0.001915
2-0376,pubchemPCH,VHIRQQACBIOLGP-UHFFFAOYSA-N,c1c(Cl)c(Cl)cc2c1c(Cl)c1c(c2)cc2c(c1Cl)cc1c(c2)cccc1,C22H10Cl4,d4tzvp,416.134,10,22,4,-2685.93210295403,-2685.6649364422,0.000229756,-2685.7334381990004,7.070744651084,6.8885554362,0.0016965542,6.3827276356,0.2458360172,-7.1208,-1.5985,5.5223,4.74544,384.2157,-1.54332 -1.05056 0.00655,0.014297,0.002198,0.001915
2-0377,pubchemPCH,VIBMOAUSYSJQAZ-UHFFFAOYSA-N,c1c(Cl)c(Cl)cc2c1c(Cl)c(Cl)c1c2cccc1,C14H6Cl4,xtb2,316.014,6,14,4,-51.271436565045,-51.105096886391,0.00019865013,-51.164324422681,5.874290242475,5.764603244941,0.001028191496,5.458047949837,0.150073343044,-10.7304,-8.0113,2.719128468764,3.14,197.074645,-0.907 -0.839 0.000,0.01462837,0.006708276,0.004599183
2-0377,pubchemPCH,VIBMOAUSYSJQAZ-UHFFFAOYSA-N,c1c(Cl)c(Cl)cc2c1c(Cl)c(Cl)c1c2cccc1,C14H6Cl4,r2scan,316.014,6,14,4,-2377.723260221343,-2377.5536298033,0.0001941918,-2377.6115281027,4.632631731669,4.5196528449,0.0011038612,4.1905365159,0.1536156625,-5.9752,-2.6496,3.3256,2.92183,229.31146,-0.87057 -0.75066 0.00001,0.014387,0.006663,0.004554
2-0377,pubchemPCH,VIBMOAUSYSJQAZ-UHFFFAOYSA-N,c1c(Cl)c(Cl)cc2c1c(Cl)c(Cl)c1c2cccc1,C14H6Cl4,d4tzvp,316.014,6,14,4,-2378.444066547832,-2378.2744361298,0.0001941918,-2378.3323344292003,4.58531401651,4.4723351298,0.0011038612,4.1432188014,0.1536156625,-8.6734,-0.1805,8.4929,3.00678,220.88368,-0.90800 -0.75820 0.00001,0.014387,0.006663,0.004554
2-0378,pubchemPCH,VIPKELJMJVNHER-UHFFFAOYSA-N,c1c(Cl)c(Cl)c2c(c1Cl)c1c(Cl)cc(c(c1c(c2Cl)Cl)Cl)Cl,C14H2Cl8,xtb2,453.794,2,14,8,-67.430468055676,-67.297942488338,0.000235631352,-67.368195975806,5.677152249006,5.601279362788,0.001058827858,5.285589836218,0.111084736854,-10.9505,-8.7308,2.219759627702,1.22,247.377974,-0.000 -0.480 -0.000,0.007756028,0.004054189,0.002828748
2-0378,pubchemPCH,VIPKELJMJVNHER-UHFFFAOYSA-N,c1c(Cl)c(Cl)c2c(c1Cl)c1c(Cl)cc(c(c1c(c2Cl)Cl)Cl)Cl,C14H2Cl8,r2scan,453.794,2,14,8,-4215.979736295392,-4215.8441517485,0.0002289168,-4215.9124032857,4.422221394646,4.3432883789,0.0011367834,4.0043562249,0.114881096,-6.0743,-3.4747,2.5996,1.22516,291.95242,0.00002 -0.48200 -0.00000,0.007637,0.003969,0.002823
2-0378,pubchemPCH,VIPKELJMJVNHER-UHFFFAOYSA-N,c1c(Cl)c(Cl)c2c(c1Cl)c1c(Cl)cc(c(c1c(c2Cl)Cl)Cl)Cl,C14H2Cl8,d4tzvp,453.794,2,14,8,-4216.843905305973,-4216.7083207591,0.0002289168,-4216.7765722963,4.396048925691,4.3171159103,0.0011367834,3.9781837565,0.114881096,-8.7887,-1.0856,7.7031,1.39514,276.26452,-0.00000 -0.54888 -0.00001,0.007637,0.003969,0.002823
2-0379,pubchemPCH,VJZRCIYSYVGDMU-UHFFFAOYSA-N,c1cc(Cl)c2c(c1Cl)cc(c(c2)Cl)Cl,C10H4Cl4,xtb2,265.954,4,10,4,-41.675796875319,-41.557730228568,0.000176103616,-41.610235521824,4.238801566081,4.16322443017,0.000755049448,3.938106437022,0.104738448175,-10.8772,-8.1552,2.721980871132,1.991,157.056613,0.783 -0.000 0.000,0.0168135,0.01156445,0.00685176
2-0379,pubchemPCH,VJZRCIYSYVGDMU-UHFFFAOYSA-N,c1cc(Cl)c2c(c1Cl)cc(c(c2)Cl)Cl,C10H4Cl4,r2scan,265.954,4,10,4,-2224.115065122436,-2223.9943043961,0.0001712511,-2224.0453628977,3.347844353204,3.2695722753,0.0008126733,3.0272736135,0.1078425214,-6.0505,-2.8193,3.2312,1.97209,173.37829,0.77586 -0.00009 0.00002,0.01646,0.01147,0.00676
2-0379,pubchemPCH,VJZRCIYSYVGDMU-UHFFFAOYSA-N,c1cc(Cl)c2c(c1Cl)cc(c(c2)Cl)Cl,C10H4Cl4,d4tzvp,265.954,4,10,4,-2224.674034851362,-2224.5532741250995,0.0001712511,-2224.6043326267,3.316585205852,3.2383131281,0.0008126733,2.9960144667,0.1078425214,-8.8218,-0.298,8.5238,2.16421,168.36532,0.85145 -0.00010 0.00002,0.01646,0.01147,0.00676
2-0380,pubchemPCH,VNOWDIDPUOVGCY-UHFFFAOYSA-N,Clc1c(Cl)c2ccc3c4c2c(c1Cl)c(Cl)c(c4ccc3)Cl,C16H5Cl5,xtb2,374.481,5,16,5,-59.616737060393,-59.445716304316,0.000213259055,-59.509299491667,6.543955624068,6.434308605871,0.001136893223,6.095343890767,0.152710914625,-10.5343,-8.4646,2.069741268034,4.152,227.153887,1.162 -1.148 0.000,0.009742195,0.006364799,0.003849701
2-0380,pubchemPCH,VNOWDIDPUOVGCY-UHFFFAOYSA-N,Clc1c(Cl)c2ccc3c4c2c(c1Cl)c(Cl)c(c4ccc3)Cl,C16H5Cl5,r2scan,374.481,5,16,5,-2913.503352099006,-2913.3287328621,0.0002050499,-2913.3898684997,5.131569832028,5.0183230873,0.0012233273,4.653587911,0.1569032903,-5.6701,-3.1266,2.5435,3.83629,272.75269,1.08641 -1.04620 -0.05582,0.009636,0.006266,0.003864
2-0380,pubchemPCH,VNOWDIDPUOVGCY-UHFFFAOYSA-N,Clc1c(Cl)c2ccc3c4c2c(c1Cl)c(Cl)c(c4ccc3)Cl,C16H5Cl5,d4tzvp,374.481,5,16,5,-2914.33114928466,-2914.1565300478,0.0002050499,-2914.2176656854,5.079498875532,4.966252131,0.0012233273,4.6015169552,0.1569032903,-8.1493,-0.8629,7.2864,4.04063,262.42837,1.15419 -1.09174 -0.05487,0.009636,0.006266,0.003864
2-0381,pubchemPCH,VPNMYNHJUBCOHA-UHFFFAOYSA-N,c1c2c(cc(c(c2)Cl)Cl)cc2c1cc(c(c2)Cl)Cl,C14H6Cl4,xtb2,316.014,6,14,4,-51.266888417965,-51.101061373287,0.000193922499,-51.158879366292,5.869742095395,5.760567731837,0.001032919127,5.452602893448,0.149615310644,-10.5876,-8.4657,2.12191172865,0.0,196.992359,-0.000 -0.000 0.000,0.02966208,0.003542911,0.003164889
2-0381,pubchemPCH,VPNMYNHJUBCOHA-UHFFFAOYSA-N,c1c2c(cc(c(c2)Cl)Cl)cc2c1cc(c(c2)Cl)Cl,C14H6Cl4,r2scan,316.014,6,14,4,-2377.718152837963,-2377.5489072579,0.0001885608,-2377.605126658,4.627524348289,4.5149302995,0.0011094922,4.1841350712,0.1534874498,-5.5991,-3.1949,2.4042,1E-05,251.87573,-0.00000 0.00000 -0.00000,0.028713,0.003529,0.003143
2-0381,pubchemPCH,VPNMYNHJUBCOHA-UHFFFAOYSA-N,c1c2c(cc(c(c2)Cl)Cl)cc2c1cc(c(c2)Cl)Cl,C14H6Cl4,d4tzvp,316.014,6,14,4,-2378.433350689443,-2378.2641051093,0.0001885608,-2378.3203245094,4.574598158121,4.4620041093,0.0011094922,4.1312088816,0.1534874498,-8.1674,-0.8132,7.3542,6E-05,239.20127,-0.00001 -0.00002 0.00000,0.028713,0.003529,0.003143
2-0382,pubchemPCH,VQBIYCQGHAHVPN-UHFFFAOYSA-N,c1ccc2c(c1Cl)cc(cc2)Cl,C10H6Cl2,xtb2,197.064,6,10,2,-33.57889523291,-33.444292976797,0.000156159189,-33.490851839016,4.319984665722,4.227871920449,0.000741185083,4.006887587586,0.123923061074,-10.6138,-7.6626,2.951184884496,2.834,132.171013,0.569 0.959 -0.000,0.03767525,0.01765843,0.01202316