id,subset,key,smiles,formula,level,mwt,nH,nC,nCl,E,H,S,G,dE,dH,dS,dG,zpe,homo,lumo,gap,Mu,alpha,tMu,rotA,rotB,rotC
3-0042,monoCl,AZTXUKDSNGATKC-UHFFFAOYSA-N,c1ccc2c(c1)ccc1c2c2-c3ccc(c4c3c(-c2cc1)ccc4)Cl,C24H13Cl,xtb2,336.821,13,24,1,-62.596995703449,-62.296874147578,0.000211596787,-62.359961729688,9.96008172456,9.749660247129,0.001662315031,9.254041019448,0.281422412871,-10.0862,-8.0237,2.062429202643,1.619,257.160453,-0.393 0.500 -0.037,0.01274301,0.005008166,0.003684261
3-0042,monoCl,AZTXUKDSNGATKC-UHFFFAOYSA-N,c1ccc2c(c1)ccc1c2c2-c3ccc(c4c3c(-c2cc1)ccc4)Cl,C24H13Cl,r2scan,336.821,13,24,1,-1382.399212941223,-1382.0921637274,0.0002045533,-1382.1531513035,7.847501644433,7.6301506886,0.0017844339,7.0981215836,0.2890065516,-5.3325,-2.9655,2.367,1.45931,321.18818,-0.33574 0.46539 -0.01762,0.012691,0.004908,0.003623
3-0042,monoCl,AZTXUKDSNGATKC-UHFFFAOYSA-N,c1ccc2c(c1)ccc1c2c2-c3ccc(c4c3c(-c2cc1)ccc4)Cl,C24H13Cl,d4tzvp,336.821,13,24,1,-1383.4020593659,-1383.0950101521,0.0002045533,-1383.1559977282,7.736907034108,7.5195560781,0.0017844339,6.9875269744,0.2890065516,-7.93,-0.6431,7.2869,1.64636,306.90918,-0.40208 0.50744 -0.01925,0.012691,0.004908,0.003623
3-0043,monoCl,BAFHGPAPYFDPCV-UHFFFAOYSA-N,c1cc(Cl)c2c(c1)cc1c3c2-c2cccc4c2c3c(cc1)cc4,C22H11Cl,xtb2,310.783,11,22,1,-57.282778477904,-57.018036664614,0.000197239835,-57.076843721288,9.019422769617,8.834938921247,0.001487389677,8.39147368772,0.247984216329,-10.0386,-8.1407,1.897924978387,1.706,234.434347,0.024 0.647 -0.175,0.01388534,0.007787059,0.005027008
3-0043,monoCl,BAFHGPAPYFDPCV-UHFFFAOYSA-N,c1cc(Cl)c2c(c1)cc1c3c2-c2cccc4c2c3c(cc1)cc4,C22H11Cl,r2scan,310.783,11,22,1,-1304.981858228028,-1304.7113597754,0.000192049,-1304.7686191836,7.089122477144,6.8988803606,0.001596222,6.4229666329,0.2542463413,-5.2814,-3.1116,2.1698,1.63272,288.86984,-0.05662 0.58800 -0.25231,0.013742,0.007662,0.004963
3-0043,monoCl,BAFHGPAPYFDPCV-UHFFFAOYSA-N,c1cc(Cl)c2c(c1)cc1c3c2-c2cccc4c2c3c(cc1)cc4,C22H11Cl,d4tzvp,310.783,11,22,1,-1305.898093272924,-1305.6275948203,0.000192049,-1305.6848542285002,6.988621911378,6.7983797947,0.001596222,6.3224660681,0.2542463413,-7.7992,-0.8592,6.94,1.71864,280.08453,-0.10617 0.61355 -0.26356,0.013742,0.007662,0.004963
3-0044,monoCl,BAWSTOABXDREJT-UHFFFAOYSA-N,c1ccc2-c3c4c(-c2c1)cc1c2c4c(cc3Cl)ccc2ccc1,C22H11Cl,xtb2,310.783,11,22,1,-57.31616086698,-57.051156550663,0.000197820097,-57.110136612436,9.052805158693,8.868058807296,0.001486809415,8.424766578868,0.248231201335,-10.1695,-8.1103,2.059112713429,2.608,234.567144,0.742 -0.708 -0.000,0.01404911,0.006963145,0.004655663
3-0044,monoCl,BAWSTOABXDREJT-UHFFFAOYSA-N,c1ccc2-c3c4c(-c2c1)cc1c2c4c(cc3Cl)ccc2ccc1,C22H11Cl,r2scan,310.783,11,22,1,-1305.020431763651,-1304.7504223871,0.0001943348,-1304.808363306,7.127696012767,6.9379429723,0.0015939362,6.4627107553,0.2533882469,-5.3881,-2.9801,2.408,2.46324,298.29752,0.70034 -0.66983 0.00001,0.013899,0.006908,0.004614
3-0044,monoCl,BAWSTOABXDREJT-UHFFFAOYSA-N,c1ccc2-c3c4c(-c2c1)cc1c2c4c(cc3Cl)ccc2ccc1,C22H11Cl,d4tzvp,310.783,11,22,1,-1305.936166674865,-1305.6661572983,0.0001943348,-1305.7240982172002,7.026695313319,6.8369422727,0.0015939362,6.3617100568,0.2533882469,-7.8022,-0.7397,7.0625,2.46955,287.28534,0.69353 -0.68042 0.00001,0.013899,0.006908,0.004614
3-0045,monoCl,BBCJLTKBPBIHEE-UHFFFAOYSA-N,c1ccc2c(c1)ccc1c2ccc2c1c1c(cc2)cc(c2c1cccc2)Cl,C26H15Cl,xtb2,362.859,15,26,1,-67.902860142057,-67.567616614326,0.000224672081,-67.634602595194,10.892387892566,10.656286556795,0.001838522043,10.108131208282,0.314619921841,-10.0689,-7.5255,2.543448410751,2.146,279.857586,0.768 0.204 0.285,0.01223513,0.003958409,0.003165451
3-0045,monoCl,BBCJLTKBPBIHEE-UHFFFAOYSA-N,c1ccc2c(c1)ccc1c2ccc2c1c1c(cc2)cc(c2c1cccc2)Cl,C26H15Cl,r2scan,362.859,15,26,1,-1459.805810963127,-1459.4626275977,0.0002162438,-1459.5271006803,8.595124120431,8.3510809349,0.0019734596,7.7626937912,0.3233630498,-5.3539,-2.4198,2.9341,1.94928,349.56635,0.70909 0.13883 0.25697,0.012225,0.003859,0.003103
3-0045,monoCl,BBCJLTKBPBIHEE-UHFFFAOYSA-N,c1ccc2c(c1)ccc1c2ccc2c1c1c(cc2)cc(c2c1cccc2)Cl,C26H15Cl,d4tzvp,362.859,15,26,1,-1460.895054626738,-1460.5518712613,0.0002162438,-1460.6163443439,8.4742213247,8.2301781389,0.0019734596,7.6417909967,0.3233630498,-7.8913,-0.0338,7.8575,1.96156,334.62029,0.70880 0.17068 0.25301,0.012225,0.003859,0.003103
3-0046,monoCl,BBKCYFMPNSMOIF-UHFFFAOYSA-N,c1cc2ccc3c4c2c(c1)cc1c4c2c(c3)c(Cl)ccc2cc1,C22H11Cl,xtb2,310.783,11,22,1,-57.330791945816,-57.06576577825,0.000195509553,-57.124056951407,9.067436237529,8.882668034883,0.001489119959,8.438686917839,0.248463108624,-9.7277,-8.102,1.625639219464,2.069,234.661915,-0.459 -0.672 -0.000,0.01614007,0.006441378,0.004603969
3-0046,monoCl,BBKCYFMPNSMOIF-UHFFFAOYSA-N,c1cc2ccc3c4c2c(c1)cc1c4c2c(c3)c(Cl)ccc2cc1,C22H11Cl,r2scan,310.783,11,22,1,-1305.038057674183,-1304.7676836186,0.0001913023,-1304.8247203874,7.145321923299,6.9552042038,0.0015969687,6.4790678367,0.2541307585,-4.9034,-2.9457,1.9577,1.92302,308.9199,-0.42243 -0.62765 0.00002,0.01599,0.006383,0.004562
3-0046,monoCl,BBKCYFMPNSMOIF-UHFFFAOYSA-N,c1cc2ccc3c4c2c(c1)cc1c4c2c(c3)c(Cl)ccc2cc1,C22H11Cl,d4tzvp,310.783,11,22,1,-1305.948196346677,-1305.6778222910998,0.0001913023,-1305.7348590599,7.038724985131,6.8486072655,0.0015969687,6.3724708995,0.2541307585,-7.1104,-0.8307,6.2797,1.98652,301.46464,-0.42048 -0.65879 0.00002,0.01599,0.006383,0.004562
3-0047,monoCl,BCFVMHHSHKKWDC-UHFFFAOYSA-N,c1ccc2c(c1)cc1-c3c(-c1c2Cl)c1ccccc1cc3,C20H11Cl,xtb2,286.761,11,20,1,-52.941019614925,-52.68981532008,0.000196807213,-52.748493390605,8.264256649368,8.088589262683,0.001381416043,7.676720068407,0.234766675894,-9.9376,-7.7575,2.180071946061,1.601,214.169966,0.124 0.617 -0.000,0.02318951,0.005994046,0.004762922
3-0047,monoCl,BCFVMHHSHKKWDC-UHFFFAOYSA-N,c1ccc2c(c1)cc1-c3c(-c1c2Cl)c1ccccc1cc3,C20H11Cl,r2scan,286.761,11,20,1,-1228.724018672449,-1228.4677081266,0.0001915581,-1228.524821187,6.495715096101,6.3149399254,0.0014833005,5.8726937697,0.2402886579,-5.1226,-2.6591,2.4635,1.64761,282.43556,0.27512 0.58693 -0.00007,0.02304,0.00592,0.00471
3-0047,monoCl,BCFVMHHSHKKWDC-UHFFFAOYSA-N,c1ccc2c(c1)cc1-c3c(-c1c2Cl)c1ccccc1cc3,C20H11Cl,d4tzvp,286.761,11,20,1,-1229.566563300743,-1229.3102527549,0.0001915581,-1229.3673658153,6.402713854763,6.2219386839,0.0014833005,5.7796925293,0.2402886579,-7.6316,-0.1889,7.4427,1.76009,268.02625,0.31389 0.61723 -0.00008,0.02304,0.00592,0.00471
3-0048,monoCl,BCGLKNUVNYMTIU-UHFFFAOYSA-N,c1ccc2c(c1)cc1c(c2)c2ccc3c(c2c2c1c(Cl)ccc2)cccc3,C26H15Cl,xtb2,362.859,15,26,1,-67.893458710592,-67.558096935718,0.000226531185,-67.625637208586,10.882986461101,10.646766878187,0.001836662939,10.099165821674,0.314600309638,-9.9523,-7.625,2.327281688264,1.747,279.827522,0.459 0.423 -0.287,0.0096667,0.004493682,0.003150236
3-0048,monoCl,BCGLKNUVNYMTIU-UHFFFAOYSA-N,c1ccc2c(c1)cc1c(c2)c2ccc3c(c2c2c1c(Cl)ccc2)cccc3,C26H15Cl,r2scan,362.859,15,26,1,-1459.793460392255,-1459.4503156975,0.0002183941,-1459.5154298957,8.582773549559,8.3387690347,0.0019713093,7.7510230066,0.3231494079,-5.1796,-2.5348,2.6448,1.53301,359.55954,0.40201 0.35671 -0.27368,0.009519,0.00445,0.003113
3-0048,monoCl,BCGLKNUVNYMTIU-UHFFFAOYSA-N,c1ccc2c(c1)cc1c(c2)c2ccc3c(c2c2c1c(Cl)ccc2)cccc3,C26H15Cl,d4tzvp,362.859,15,26,1,-1460.883853492624,-1460.5407087978,0.0002183941,-1460.605822996,8.463020190586,8.2190156754,0.0019713093,7.6312696488,0.3231494079,-7.656,-0.1461,7.5099,1.56102,342.78286,0.41712 0.34818 -0.28628,0.009519,0.00445,0.003113
3-0049,monoCl,BDESJUDXLKSMAO-UHFFFAOYSA-N,c1cc(Cl)c2c(c1)ccc1c2c2-c3cccc4c3c(-c2cc1)ccc4,C24H13Cl,xtb2,336.821,13,24,1,-62.59179720087,-62.292143995242,0.000210386426,-62.354870708112,9.954883221981,9.744930094793,0.001663525392,9.248949997872,0.280991937186,-10.0348,-7.8532,2.181542993816,1.314,257.20348,-0.142 0.165 0.469,0.01334895,0.006155106,0.004637839
3-0049,monoCl,BDESJUDXLKSMAO-UHFFFAOYSA-N,c1cc(Cl)c2c(c1)ccc1c2c2-c3cccc4c3c(-c2cc1)ccc4,C24H13Cl,r2scan,336.821,13,24,1,-1382.388008611856,-1382.0815421228,0.0002034466,-1382.1421997281,7.836297315066,7.619529084,0.0017855406,7.0871700082,0.2884649293,-5.2596,-2.7825,2.4771,1.27792,314.02747,-0.18134 0.10302 0.45746,0.013059,0.005999,0.004559
3-0049,monoCl,BDESJUDXLKSMAO-UHFFFAOYSA-N,c1cc(Cl)c2c(c1)ccc1c2c2-c3cccc4c3c(-c2cc1)ccc4,C24H13Cl,d4tzvp,336.821,13,24,1,-1383.390856089998,-1383.0843896009,0.0002034466,-1383.1450472062,7.725703758206,7.5089355269,0.0017855406,6.9765764524,0.2884649293,-7.8485,-0.4497,7.3988,1.4248,301.46723,-0.28846 0.13115 0.46239,0.013059,0.005999,0.004559
3-0050,monoCl,BDMMENNFSOKPLX-UHFFFAOYSA-N,c1ccc2-c3c4c(-c2c1)c1ccccc1cc4cc1c3cc(Cl)cc1,C24H13Cl,xtb2,336.821,13,24,1,-62.589406406946,-62.289944818843,0.00021560904,-62.354228654235,9.952492428057,9.742730918394,0.001658302778,9.248307943995,0.280324896016,-9.836,-8.452,1.38395216752,2.536,257.166966,-0.828 -0.557 0.000,0.01284971,0.004604884,0.00339002
3-0050,monoCl,BDMMENNFSOKPLX-UHFFFAOYSA-N,c1ccc2-c3c4c(-c2c1)c1ccccc1cc4cc1c3cc(Cl)cc1,C24H13Cl,r2scan,336.821,13,24,1,-1382.391766795271,-1382.0860423166,0.0002093638,-1382.1484641313,7.840055498481,7.6240292778,0.0017796234,7.0934344114,0.2870407729,-5.0106,-3.4418,1.5688,2.55316,347.38952,-0.74609 -0.67254 0.00005,0.012703,0.00458,0.003366
3-0050,monoCl,BDMMENNFSOKPLX-UHFFFAOYSA-N,c1ccc2-c3c4c(-c2c1)c1ccccc1cc4cc1c3cc(Cl)cc1,C24H13Cl,d4tzvp,336.821,13,24,1,-1383.389097809968,-1383.0833733313,0.0002093638,-1383.145795146,7.723945478176,7.5079192573,0.0017796234,6.9773243922,0.2870407729,-7.3158,-1.3079,6.0079,2.61694,335.30437,-0.77779 -0.67457 0.00005,0.012703,0.00458,0.003366
3-0051,monoCl,BDRWLSJZCSPEBN-UHFFFAOYSA-N,c1c(Cl)cc2-c3c4c(-c2c1)cccc4cc1c3ccc2c1cccc2,C24H13Cl,xtb2,336.821,13,24,1,-62.599817175921,-62.299901872806,0.000215215552,-62.364068389767,9.962903197032,9.752687972357,0.001658696266,9.258147679527,0.280863920528,-10.1309,-8.1297,2.001208021982,2.839,257.118268,0.577 -0.956 -0.001,0.01109983,0.004658019,0.003281111
3-0051,monoCl,BDRWLSJZCSPEBN-UHFFFAOYSA-N,c1c(Cl)cc2-c3c4c(-c2c1)cccc4cc1c3ccc2c1cccc2,C24H13Cl,r2scan,336.821,13,24,1,-1382.403125577996,-1382.0972080235,0.0002097036,-1382.1597311426,7.851414281206,7.6351949847,0.0017792836,7.1047014227,0.287248387,-5.3809,-3.0687,2.3122,2.78811,334.45039,0.58795 -0.92602 -0.00040,0.010981,0.00462,0.003252
3-0051,monoCl,BDRWLSJZCSPEBN-UHFFFAOYSA-N,c1c(Cl)cc2-c3c4c(-c2c1)cccc4cc1c3ccc2c1cccc2,C24H13Cl,d4tzvp,336.821,13,24,1,-1383.406144612052,-1383.1002270575998,0.0002097036,-1383.1627501767,7.74099228026,7.5247729836,0.0017792836,6.9942794229,0.287248387,-7.8285,-0.7898,7.0387,2.65713,320.08085,0.50041 -0.91782 -0.00042,0.010981,0.00462,0.003252
3-0052,monoCl,BEBGUFZCBZOCFB-UHFFFAOYSA-N,c1ccc2c(c1)cc1c3c2ccc2c3c(cc1)c1c(c2)cccc1Cl,C24H13Cl,xtb2,336.821,13,24,1,-62.609308540559,-62.309207853371,0.00021101949,-62.372123314427,9.97239456167,9.761993952922,0.001662892328,9.266202604187,0.281387701489,-9.6962,-8.0413,1.654887928091,1.78,257.247602,-0.257 -0.631 0.162,0.0181633,0.004136507,0.003403635
3-0052,monoCl,BEBGUFZCBZOCFB-UHFFFAOYSA-N,c1ccc2c(c1)cc1c3c2ccc2c3c(cc1)c1c(c2)cccc1Cl,C24H13Cl,r2scan,336.821,13,24,1,-1382.411955321544,-1382.10523711,0.0002049369,-1382.1663390493,7.860244024754,7.6432240712,0.0017840503,7.1113093294,0.2885703871,-4.8494,-2.9297,1.9197,1.65593,350.49072,-0.18554 -0.60107 0.16947,0.017985,0.004085,0.003361
3-0052,monoCl,BEBGUFZCBZOCFB-UHFFFAOYSA-N,c1ccc2c(c1)cc1c3c2ccc2c3c(cc1)c1c(c2)cccc1Cl,C24H13Cl,d4tzvp,336.821,13,24,1,-1383.410405204023,-1383.1036869925,0.0002049369,-1383.1647889318,7.745252872231,7.5282329185,0.0017840503,6.996318178,0.2885703871,-7.1013,-0.7502,6.3511,1.67184,336.50247,-0.13283 -0.61998 0.17493,0.017985,0.004085,0.003361
3-0053,monoCl,BEKOPIGLIIRPKW-UHFFFAOYSA-N,c1c2c(ccc3c2ccc2c3cccc2)cc2c1ccc1c2ccc(c1)Cl,C26H15Cl,xtb2,362.859,15,26,1,-67.911036520758,-67.575720789599,0.000227949288,-67.643683869737,10.900564271267,10.664390732068,0.001835244836,10.117212482825,0.314397220473,-10.0098,-7.7175,2.292290895326,2.629,279.848211,1.027 -0.119 -0.000,0.02607285,0.002154669,0.001990199
3-0053,monoCl,BEKOPIGLIIRPKW-UHFFFAOYSA-N,c1c2c(ccc3c2ccc2c3cccc2)cc2c1ccc1c2ccc(c1)Cl,C26H15Cl,r2scan,362.859,15,26,1,-1459.81929553823,-1459.4769780645,0.0002210175,-1459.5428744277,8.608608695534,8.3654314017,0.0019686859,7.7784675386,0.3219621746,-5.239,-2.5952,2.6438,2.37745,386.31966,0.93059 -0.09419 -0.00000,0.025822,0.002137,0.001974
3-0053,monoCl,BEKOPIGLIIRPKW-UHFFFAOYSA-N,c1c2c(ccc3c2ccc2c3cccc2)cc2c1ccc1c2ccc(c1)Cl,C26H15Cl,d4tzvp,362.859,15,26,1,-1460.908473383269,-1460.5661559095995,0.0002210175,-1460.6320522728,8.487640081231,8.2444627872,0.0019686859,7.6574989256,0.3219621746,-7.7071,-0.2281,7.479,2.36322,362.99451,0.92391 -0.10402 -0.00000,0.025822,0.002137,0.001974
3-0054,monoCl,BEOUCZHADGWMPG-UHFFFAOYSA-N,c1ccc2c(c1)cc1c(c2)cc2c3c1ccc1c3c(cc2Cl)ccc1,C24H13Cl,xtb2,336.821,13,24,1,-62.616512369833,-62.316568257855,0.000211710769,-62.379689823772,9.979598390944,9.769354357406,0.001662201049,9.273769113532,0.281184859092,-9.7622,-8.076,1.686241604309,2.036,257.267999,0.133 0.790 -0.000,0.01367985,0.00438944,0.003323146
3-0054,monoCl,BEOUCZHADGWMPG-UHFFFAOYSA-N,c1ccc2c(c1)cc1c(c2)cc2c3c1ccc1c3c(cc2Cl)ccc1,C24H13Cl,r2scan,336.821,13,24,1,-1382.422944594763,-1382.116715799,0.0002060937,-1382.1781626282,7.871233297973,7.6547027602,0.0017828935,7.1231329083,0.2879383582,-4.911,-2.9785,1.9325,1.87914,353.36907,0.10466 0.73185 0.00002,0.013504,0.004359,0.003295
3-0054,monoCl,BEOUCZHADGWMPG-UHFFFAOYSA-N,c1ccc2c(c1)cc1c(c2)cc2c3c1ccc1c3c(cc2Cl)ccc1,C24H13Cl,d4tzvp,336.821,13,24,1,-1383.420986603551,-1383.1147578078003,0.0002060937,-1383.1762046370002,7.755834271759,7.5393037338,0.0017828935,7.0077338832,0.2879383582,-7.2101,-0.7642,6.4459,1.84361,337.60172,0.07636 0.72129 0.00004,0.013504,0.004359,0.003295
3-0055,monoCl,BEZCQAHWXOFLLW-UHFFFAOYSA-N,c1ccc2c(c1)cc1c(c2)c2c(Cl)c3ccccc3cc2cc1,C22H13Cl,xtb2,312.799,13,22,1,-58.301930585662,-58.015066537054,0.000205898876,-58.0764552868,9.251609349503,9.049724322575,0.001561606686,8.58413128793,0.268988430888,-9.9931,-7.6567,2.336354189853,1.44,239.920249,0.147 0.514 -0.189,0.02027961,0.004854851,0.003981421
3-0055,monoCl,BEZCQAHWXOFLLW-UHFFFAOYSA-N,c1ccc2c(c1)cc1c(c2)c2c(Cl)c3ccccc3cc2cc1,C22H13Cl,r2scan,312.799,13,22,1,-1306.189881046103,-1305.8963586818,0.0001991752,-1305.9557427775,7.302601923849,7.0940568566,0.0016763996,6.594238191,0.2762964708,-5.1885,-2.5406,2.6479,1.22653,318.5039,0.13894 0.41442 -0.20444,0.020107,0.004773,0.003922
3-0055,monoCl,BEZCQAHWXOFLLW-UHFFFAOYSA-N,c1ccc2c(c1)cc1c(c2)c2c(Cl)c3ccccc3cc2cc1,C22H13Cl,d4tzvp,312.799,13,22,1,-1307.118044795349,-1306.824522431,0.0001991752,-1306.8839065267,7.198514379123,6.9899693116,0.0016763996,6.4901506473,0.2762964708,-7.6828,-0.1547,7.5281,1.28864,302.02694,0.17250 0.42996 -0.20593,0.020107,0.004773,0.003922
3-0056,monoCl,BFIFOISZYNREDL-UHFFFAOYSA-N,Clc1ccc2c(c1)c1c2c2ccc3c4c2c(c1)ccc4ccc3,C22H11Cl,xtb2,310.783,11,22,1,-57.248189423461,-56.984033183638,0.000201093656,-57.043989257254,8.984833715174,8.800935440271,0.001483535856,8.358619223686,0.247003998913,-9.8539,-7.8967,1.957251828009,2.525,231.713078,-0.976 0.188 0.000,0.02676501,0.003872857,0.003383299
3-0056,monoCl,BFIFOISZYNREDL-UHFFFAOYSA-N,Clc1ccc2c(c1)c1c2c2ccc3c4c2c(c1)ccc4ccc3,C22H11Cl,r2scan,310.783,11,22,1,-1304.945319419416,-1304.6761299736,0.0001965865,-1304.7347422286,7.052583668532,6.8636505588,0.0015916845,6.3890896779,0.2523886744,-4.9873,-2.7523,2.235,2.31794,323.87053,-0.89200 0.18962 0.00002,0.026548,0.00383,0.003347
3-0056,monoCl,BFIFOISZYNREDL-UHFFFAOYSA-N,Clc1ccc2c(c1)c1c2c2ccc3c4c2c(c1)ccc4ccc3,C22H11Cl,d4tzvp,310.783,11,22,1,-1305.858994428906,-1305.5898049830998,0.0001965865,-1305.6484172381,6.94952306736,6.7605899575,0.0015916845,6.2860290777,0.2523886744,-7.373,-0.461,6.912,2.33909,304.84437,-0.90033 0.19046 0.00002,0.026548,0.00383,0.003347
3-0057,monoCl,BFJBTNIMAJOQES-UHFFFAOYSA-N,Clc1ccc2c(c1)cc1c(c2)c2c(cc1)ccc1c2cccc1,C22H13Cl,xtb2,312.799,13,22,1,-58.306196042729,-58.019235005808,0.000205761694,-58.080582854931,9.25587480657,9.053892791329,0.001561743868,8.588258856061,0.269187082999,-9.9676,-7.8064,2.161224377568,2.51,239.84479,-0.975 -0.151 0.049,0.01841586,0.004265524,0.003517909
3-0057,monoCl,BFJBTNIMAJOQES-UHFFFAOYSA-N,Clc1ccc2c(c1)cc1c(c2)c2c(cc1)ccc1c2cccc1,C22H13Cl,r2scan,312.799,13,22,1,-1306.197199590979,-1305.9035604467,0.0001990567,-1305.9629091954,7.309920468725,7.1012586215,0.0016765181,6.6014046089,0.2765006157,-5.1558,-2.7269,2.4289,2.32851,307.4987,-0.90856 -0.10988 0.04083,0.018354,0.004195,0.003462
3-0057,monoCl,BFJBTNIMAJOQES-UHFFFAOYSA-N,Clc1ccc2c(c1)cc1c(c2)c2c(cc1)ccc1c2cccc1,C22H13Cl,d4tzvp,312.799,13,22,1,-1307.124555160403,-1306.8309160161,0.0001990567,-1306.8902647648,7.205024744177,6.9963628967,0.0016765181,6.4965088854,0.2765006157,-7.6385,-0.3653,7.2732,2.34058,293.73409,-0.91142 -0.12439 0.04227,0.018354,0.004195,0.003462
3-0058,monoCl,BFWKKBOMWOYHFF-UHFFFAOYSA-N,c1ccc2c(c1)ccc1c2cc2c(c1)cc1c(c2)ccc2c1c(Cl)ccc2,C26H15Cl,xtb2,362.859,15,26,1,-67.899600361754,-67.564593486383,0.000226586602,-67.632150281893,10.889128112263,10.653263428852,0.001836607522,10.105678894981,0.314216379069,-9.7807,-7.8378,1.942903821454,1.54,279.864443,0.098 0.569 0.184,0.01773029,0.002705489,0.002366075
3-0058,monoCl,BFWKKBOMWOYHFF-UHFFFAOYSA-N,c1ccc2c(c1)ccc1c2cc2c(c1)cc1c(c2)ccc2c1c(Cl)ccc2,C26H15Cl,r2scan,362.859,15,26,1,-1459.803042363863,-1459.4606053264,0.0002193073,-1459.5259918066,8.592355521167,8.3490586636,0.0019703961,7.7615849175,0.3223084013,-4.9488,-2.7951,2.1537,1.40651,392.85167,0.10473 0.51201 0.18185,0.017487,0.002672,0.002335
3-0058,monoCl,BFWKKBOMWOYHFF-UHFFFAOYSA-N,c1ccc2c(c1)ccc1c2cc2c(c1)cc1c(c2)ccc2c1c(Cl)ccc2,C26H15Cl,d4tzvp,362.859,15,26,1,-1460.890184809515,-1460.547747772,0.0002193073,-1460.6131342522,8.469351507477,8.2260546496,0.0019703961,7.638580905,0.3223084013,-7.3551,-0.4752,6.8799,1.43332,367.6692,0.15911 0.50788 0.18634,0.017487,0.002672,0.002335
3-0059,monoCl,BFZBUWMPWZZBAV-UHFFFAOYSA-N,c1ccc2c(c1)c1cc3cc(Cl)ccc3cc1c1c2c2ccccc2cc1,C26H15Cl,xtb2,362.859,15,26,1,-67.903254704949,-67.567871410041,0.000226043908,-67.635266401117,10.892782455458,10.65654135251,0.001837150216,10.108795014205,0.314668762296,-9.9835,-7.7195,2.263923669231,2.497,279.818093,0.961 0.119 -0.167,0.0130479,0.003126679,0.002594122
3-0059,monoCl,BFZBUWMPWZZBAV-UHFFFAOYSA-N,c1ccc2c(c1)c1cc3cc(Cl)ccc3cc1c1c2c2ccccc2cc1,C26H15Cl,r2scan,362.859,15,26,1,-1459.807855429133,-1459.464812694,0.0002184605,-1459.5299466937,8.597168586437,8.3532660312,0.0019712429,7.7655398046,0.323036279,-5.217,-2.6247,2.5923,2.28267,367.55876,0.87473 0.14321 -0.14437,0.012885,0.0031,0.002564
3-0059,monoCl,BFZBUWMPWZZBAV-UHFFFAOYSA-N,c1ccc2c(c1)c1cc3cc(Cl)ccc3cc1c1c2c2ccccc2cc1,C26H15Cl,d4tzvp,362.859,15,26,1,-1460.897486579417,-1460.5544438443,0.0002184605,-1460.619577844,8.476653277379,8.2327507219,0.0019712429,7.6450244968,0.323036279,-7.6894,-0.2479,7.4415,2.2695,348.51814,0.86794 0.14948 -0.14685,0.012885,0.0031,0.002564
3-0060,monoCl,BGGMVLPTNQHELQ-UHFFFAOYSA-N,c1ccc2c3c1-c1ccc(c4c1c3c(c1c2cccc1)cc4)Cl,C22H11Cl,xtb2,310.783,11,22,1,-57.300089228225,-57.034885519155,0.000198377356,-57.094031727823,9.036733519938,8.851787775788,0.001486252156,8.408661694255,0.248402289769,-10.3525,-7.9125,2.440008527825,2.007,234.447915,0.612 -0.499 -0.000,0.01540344,0.006246248,0.004444115
3-0060,monoCl,BGGMVLPTNQHELQ-UHFFFAOYSA-N,c1ccc2c3c1-c1ccc(c4c1c3c(c1c2cccc1)cc4)Cl,C22H11Cl,r2scan,310.783,11,22,1,-1305.00232138049,-1304.7326073294,0.0001970584,-1304.791360282,7.109585629606,6.9201279146,0.0015912126,6.4457077313,0.2527941719,-5.6619,-2.8362,2.8257,1.84504,286.63683,0.53918 -0.48599 -0.00000,0.015258,0.006197,0.004407
3-0060,monoCl,BGGMVLPTNQHELQ-UHFFFAOYSA-N,c1ccc2c3c1-c1ccc(c4c1c3c(c1c2cccc1)cc4)Cl,C22H11Cl,d4tzvp,310.783,11,22,1,-1305.922183824557,-1305.6524697735,0.0001970584,-1305.7112227261,7.012712463011,6.8232547479,0.0015912126,6.3488345657,0.2527941719,-8.2113,-0.493,7.7183,1.90246,276.72644,0.53399 -0.52446 -0.00000,0.015258,0.006197,0.004407