id,subset,key,smiles,formula,level,mwt,nH,nC,nCl,E,H,S,G,dE,dH,dS,dG,zpe,homo,lumo,gap,Mu,alpha,tMu,rotA,rotB,rotC
1-0116,pubchemPAH,XHWOHWFRERPDAZ-UHFFFAOYSA-N,c1ccc2c(c1)ccc1c2cc2c(c1)c1c(cc2)ccc2c1cccc2,C26H16,xtb2,328.414,16,26,0,-63.852334593947,-63.508880786626,0.000215084054,-63.573008097322,10.930904715481,10.68659310012,0.001831205674,10.140619127096,0.324138097095,-9.8315,-7.4939,2.337555199779,0.079,267.713322,-0.024 0.020 0.003,0.01729323,0.003848273,0.003208035
1-0116,pubchemPAH,XHWOHWFRERPDAZ-UHFFFAOYSA-N,c1ccc2c(c1)ccc1c2cc2c(c1)c1c(cc2)ccc2c1cccc2,C26H16,r2scan,328.414,16,26,0,-1000.229038270379,-999.8776503339,0.0002078699,-999.9396267382,8.635073030451,8.3828252739,0.0019649217,7.7969837176,0.3327731618,-5.0896,-2.4837,2.6059,0.08072,351.48768,-0.01325 0.02526 0.01396,0.017237,0.003789,0.003159
1-0116,pubchemPAH,XHWOHWFRERPDAZ-UHFFFAOYSA-N,c1ccc2c(c1)ccc1c2cc2c(c1)c1c(cc2)ccc2c1cccc2,C26H16,d4tzvp,328.414,16,26,0,-1001.282200525962,-1000.9308125895,0.0002078699,-1000.9927889938,8.508643186164,8.2563954293,0.0019649217,7.6705538746,0.3327731618,-7.5713,-0.1211,7.4502,0.08491,334.0174,-0.01766 0.02711 0.00830,0.017237,0.003789,0.003159
1-0117,pubchemPAH,XPJUXTZYXPASRB-UHFFFAOYSA-N,c1ccc2c(c1)c1ccccc1c1c2ccc2c1c1ccccc1cc2,C26H16,xtb2,328.414,16,26,0,-63.850591876101,-63.507001426901,0.000214666143,-63.571004137466,10.929161997635,10.684713740395,0.001831623585,10.13861516724,0.324274325715,-9.9829,-7.2672,2.715702413556,0.123,267.726552,0.002 -0.048 -0.007,0.01243444,0.005838989,0.004401937
1-0117,pubchemPAH,XPJUXTZYXPASRB-UHFFFAOYSA-N,c1ccc2c(c1)c1ccccc1c1c2ccc2c1c1ccccc1cc2,C26H16,r2scan,328.414,16,26,0,-1000.223073953505,-999.8714143674,0.0002067061,-999.9330437832,8.629108713577,8.3765893074,0.0019660855,7.7904007626,0.3330999041,-5.2886,-2.2269,3.0617,0.09167,323.84324,-0.01414 -0.01266 -0.03067,0.012343,0.005729,0.004321
1-0117,pubchemPAH,XPJUXTZYXPASRB-UHFFFAOYSA-N,c1ccc2c(c1)c1ccccc1c1c2ccc2c1c1ccccc1cc2,C26H16,d4tzvp,328.414,16,26,0,-1001.279590941762,-1000.9279313557,0.0002067061,-1000.9895607715,8.506033601964,8.2535141955,0.0019660855,7.6673256523,0.3330999041,-7.8144,0.196,8.0104,0.09306,312.36592,-0.00925 -0.02538 -0.02471,0.012343,0.005729,0.004321
1-0118,pubchemPAH,XQJGPVATGFJYRR-UHFFFAOYSA-N,c1ccc2-c3c4c(-c2c1)c1cc2ccccc2cc1cc4ccc3,C24H14,xtb2,302.376,14,24,0,-58.53738598858,-58.229849076397,0.000203406634,-58.29049476427,9.989514380716,9.771677546973,0.001653600788,9.278656470716,0.289885209416,-9.6043,-8.2007,1.403617542541,0.627,245.031849,0.125 -0.212 -0.000,0.01510599,0.005736092,0.004157423
1-0118,pubchemPAH,XQJGPVATGFJYRR-UHFFFAOYSA-N,c1ccc2-c3c4c(-c2c1)c1cc2ccccc2cc1cc4ccc3,C24H14,r2scan,302.376,14,24,0,-922.809962646473,-922.4958769771,0.0001982121,-922.5549739204,7.874972952451,7.6505855411,0.0017738633,7.121708069,0.2968879734,-4.8068,-3.2301,1.5767,0.79543,327.60476,0.17290 -0.26084 0.00000,0.014933,0.005704,0.004127
1-0118,pubchemPAH,XQJGPVATGFJYRR-UHFFFAOYSA-N,c1ccc2-c3c4c(-c2c1)c1cc2ccccc2cc1cc4ccc3,C24H14,d4tzvp,302.376,14,24,0,-923.772473074759,-923.4583874054,0.0001982121,-923.5174843487,7.754596705207,7.5302092936,0.0017738633,7.0013318229,0.2968879734,-7.1156,-1.0356,6.08,0.73932,316.98556,0.12275 -0.26370 0.00001,0.014933,0.005704,0.004127
1-0119,pubchemPAH,YDGLBVYJRMXXCW-UHFFFAOYSA-N,c1ccc2c(c1)c1-c3cccc4c3c(-c1cc2)cc1c4cccc1,C24H14,xtb2,302.376,14,24,0,-58.551771361525,-58.243557027117,0.000203265431,-58.304160615309,10.003899753661,9.785385497693,0.001653741991,9.292322321755,0.290585779198,-9.9425,-7.8101,2.132377046288,0.59,245.034624,0.232 -0.005 0.000,0.02195043,0.004952767,0.004040983
1-0119,pubchemPAH,YDGLBVYJRMXXCW-UHFFFAOYSA-N,c1ccc2c(c1)c1-c3cccc4c3c(-c1cc2)cc1c4cccc1,C24H14,r2scan,302.376,14,24,0,-922.826861191734,-922.5123627181,0.0001983241,-922.5714930366,7.891871497712,7.6670712821,0.0017737513,7.1382271852,0.2972590774,-5.2514,-2.7555,2.4959,0.52895,315.7494,0.20519 -0.03466 -0.00005,0.021746,0.004912,0.004007
1-0119,pubchemPAH,YDGLBVYJRMXXCW-UHFFFAOYSA-N,c1ccc2c(c1)c1-c3cccc4c3c(-c1cc2)cc1c4cccc1,C24H14,d4tzvp,302.376,14,24,0,-923.795605017438,-923.4811065438,0.0001983241,-923.5402368623,7.777728647886,7.552928432,0.0017737513,7.0240843365,0.2972590774,-7.8554,-0.4475,7.4079,0.39912,301.57899,0.14712 -0.05488 -0.00006,0.021746,0.004912,0.004007
1-0120,pubchemPAH,YEIHPPOCKIHUQJ-UHFFFAOYSA-N,c1cc2ccc3c4c2c(-c2cccc(c42)cc3)c1,C18H10,xtb2,226.278,10,18,0,-43.64295088126,-43.418024135465,0.00016411152,-43.466953985283,7.42878855733,7.269956606175,0.001207925034,6.909813756443,0.212392360246,-10.3402,-7.6937,2.646524851008,0.037,182.274934,-0.000 -0.015 -0.000,0.02511457,0.01588533,0.009730592
1-0120,pubchemPAH,YEIHPPOCKIHUQJ-UHFFFAOYSA-N,c1cc2ccc3c4c2c(-c2cccc(c42)cc3)c1,C18H10,r2scan,226.278,10,18,0,-691.800458985923,-691.5709585897,0.0001639526,-691.6198410682,5.847852558249,5.6844456153,0.001293278,5.2988546886,0.2171932784,-5.6656,-2.6856,2.98,0.14964,210.95057,-0.00000 -0.05887 -0.00007,0.024962,0.015722,0.009646
1-0120,pubchemPAH,YEIHPPOCKIHUQJ-UHFFFAOYSA-N,c1cc2ccc3c4c2c(-c2cccc(c42)cc3)c1,C18H10,d4tzvp,226.278,10,18,0,-692.524768119696,-692.2952677234999,0.0001639526,-692.3441502019999,5.763875606202,5.6004686631,0.001293278,5.2148777374,0.2171932784,-8.3614,-0.2935,8.0679,0.14954,207.14542,-0.00000 -0.05883 -0.00007,0.024962,0.015722,0.009646
1-0121,pubchemPAH,YFIJJNAKSZUOLT-UHFFFAOYSA-N,c1cc2cc3ccc4c5c3c3c2c(c1)ccc3cc5ccc4,C22H12,xtb2,276.338,12,22,0,-53.277660514059,-53.004537281972,0.000182445711,-53.058933470703,9.103347176797,8.91048190963,0.001485279405,8.467645853821,0.257904053196,-9.5857,-7.9117,1.674062707457,0.0,222.518397,0.000 0.000 -0.000,0.02119888,0.008314123,0.005971947
1-0121,pubchemPAH,YFIJJNAKSZUOLT-UHFFFAOYSA-N,c1cc2cc3ccc4c5c3c3c2c(c1)ccc3cc5ccc4,C22H12,r2scan,276.338,12,22,0,-845.455653018955,-845.1768325275,0.0001784567,-845.2300393803,7.179638870839,6.9810747155,0.0015929025,6.5061506981,0.2639741864,-4.7934,-2.7828,2.0106,0.00019,289.70478,0.00006 0.00004 0.00000,0.020989,0.008259,0.005927
1-0121,pubchemPAH,YFIJJNAKSZUOLT-UHFFFAOYSA-N,c1cc2cc3ccc4c5c3c3c2c(c1)ccc3cc5ccc4,C22H12,d4tzvp,276.338,12,22,0,-846.330683171155,-846.0518626797,0.0001784567,-846.1050695325,7.068487771849,6.8699236163,0.0015929025,6.3949996001,0.2639741864,-7.0017,-0.6455,6.3562,3E-05,284.07885,-0.00000 -0.00001 -0.00001,0.020989,0.008259,0.005927
1-0122,pubchemPAH,YGHWNHZHYYWWLY-UHFFFAOYSA-N,c1c2c(cc3c1c1c3cccc1)cc1c(c2)c2c1cccc2,C22H12,xtb2,276.338,12,22,0,-53.111603249789,-52.840226156156,0.000191158806,-52.897220154142,8.937289912527,8.746170783814,0.00147656631,8.30593253726,0.254984255669,-9.7498,-7.447,2.302821761105,0.0,216.858603,-0.000 -0.000 0.000,0.04940103,0.003818432,0.003544464
1-0122,pubchemPAH,YGHWNHZHYYWWLY-UHFFFAOYSA-N,c1c2c(cc3c1c1c3cccc1)cc1c(c2)c2c1cccc2,C22H12,r2scan,276.338,12,22,0,-845.267811018383,-844.9915599081,0.0001891497,-845.0479548867,6.991796870267,6.7958020961,0.0015822095,6.3240662045,0.2601821256,-4.8642,-2.4286,2.4356,0.00011,323.71534,-0.00000 0.00000 0.00004,0.049194,0.003766,0.003499
1-0122,pubchemPAH,YGHWNHZHYYWWLY-UHFFFAOYSA-N,c1c2c(cc3c1c1c3cccc1)cc1c(c2)c2c1cccc2,C22H12,d4tzvp,276.338,12,22,0,-846.149801053612,-845.8735499433,0.0001891497,-845.9299449219,6.887605654306,6.6916108799,0.0015822095,6.2198749895,0.2601821256,-7.3541,0.1031,7.4572,0.00013,297.92857,0.00001 0.00001 0.00005,0.049194,0.003766,0.003499
1-0123,pubchemPAH,YNGIISNTQDJNGI-UHFFFAOYSA-N,c1ccc2-c3c4c(-c2c1)cccc4c1c(c3)ccc2c1cccc2,C24H14,xtb2,302.376,14,24,0,-58.547838933571,-58.239499358652,0.000201462285,-58.299565338914,9.999967325707,9.781327829228,0.001655545137,9.28772704536,0.290916022217,-10.0856,-7.685,2.400641059269,0.485,245.006722,0.189 0.003 -0.025,0.02110917,0.005159117,0.004204078
1-0123,pubchemPAH,YNGIISNTQDJNGI-UHFFFAOYSA-N,c1ccc2-c3c4c(-c2c1)cccc4c1c(c3)ccc2c1cccc2,C24H14,r2scan,302.376,14,24,0,-922.82125272668,-922.5059623119,0.0001957541,-922.5643263994,7.886263032658,7.6606708759,0.0017763213,7.131060548,0.2984465392,-5.4042,-2.6787,2.7255,0.47,312.08264,0.17936 0.02217 -0.03913,0.020984,0.005097,0.004148
1-0123,pubchemPAH,YNGIISNTQDJNGI-UHFFFAOYSA-N,c1ccc2-c3c4c(-c2c1)cccc4c1c(c3)ccc2c1cccc2,C24H14,d4tzvp,302.376,14,24,0,-923.790246861419,-923.4749564466,0.0001957541,-923.5333205341,7.772370491867,7.5467783348,0.0017763213,7.0171680083,0.2984465392,-7.9269,-0.3556,7.5713,0.3317,298.3792,0.11899 0.03285 -0.04233,0.020984,0.005097,0.004148
1-0124,pubchemPAH,YNPNZTXNASCQKK-UHFFFAOYSA-N,c1ccc2c(c1)c1ccccc1cc2,C14H10,xtb2,178.234,10,14,0,-35.071726767198,-34.872514972506,0.000152903329,-34.918103100141,6.030749928728,5.888190815156,0.001006320713,5.588156294041,0.188291444471,-10.2218,-7.0533,3.168509483052,0.008,147.814343,0.000 -0.003 0.000,0.05466165,0.01862856,0.01389364
1-0124,pubchemPAH,YNPNZTXNASCQKK-UHFFFAOYSA-N,c1ccc2c(c1)c1ccccc1cc2,C14H10,r2scan,178.234,10,14,0,-539.405518667722,-539.2018569243,0.0001495774,-539.2464534406,4.78177658912,4.6347663771,0.0010808284,4.3125173278,0.1931021277,-5.5418,-1.8714,3.6704,0.03985,164.05996,0.00000 -0.01568 -0.00000,0.054119,0.018463,0.013767
1-0124,pubchemPAH,YNPNZTXNASCQKK-UHFFFAOYSA-N,c1ccc2c(c1)c1ccccc1cc2,C14H10,d4tzvp,178.234,10,14,0,-539.982965522889,-539.7793037795001,0.0001495774,-539.8239002958001,4.713316840527,4.5663066283,0.0010808284,4.24405758,0.1931021277,-8.2158,0.6688,8.8846,0.01383,162.38077,-0.00000 -0.00544 0.00001,0.054119,0.018463,0.013767
1-0125,pubchemPAH,YYGRIGYJXSQDQB-UHFFFAOYSA-N,c1ccc2c(c1)cc1c(c2)c2ccc3c(c2cc1)cccc3,C22H14,xtb2,278.354,14,22,0,-54.25843326127,-53.963208849441,0.000196866977,-54.021904738721,9.297154396136,9.086909005987,0.001553734189,8.623663156537,0.278526154721,-9.8032,-7.6114,2.19181855792,0.01,227.7641,-0.004 0.001 0.000,0.03390182,0.004784678,0.004192918
1-0125,pubchemPAH,YYGRIGYJXSQDQB-UHFFFAOYSA-N,c1ccc2c(c1)cc1c(c2)c2ccc3c(c2cc1)cccc3,C22H14,r2scan,278.354,14,22,0,-846.622020071315,-846.3203228489,0.0001912728,-846.3773508296,7.351462551829,7.1347426265,0.0016673902,6.6376101116,0.2855373012,-5.0445,-2.5274,2.5171,0.02317,295.98045,-0.00351 0.00841 0.00000,0.033522,0.004751,0.004161
1-0125,pubchemPAH,YYGRIGYJXSQDQB-UHFFFAOYSA-N,c1ccc2c(c1)cc1c(c2)c2ccc3c(c2cc1)cccc3,C22H14,d4tzvp,278.354,14,22,0,-847.515666612777,-847.2139693904,0.0001912728,-847.2709973711001,7.243412158791,7.0266922332,0.0016673902,6.5295597197,0.2855373012,-7.513,-0.1555,7.3575,0.02122,284.36772,0.00091 0.00830 0.00000,0.033522,0.004751,0.004161
1-0126,pubchemPAH,YZWGEMSQAMDWEM-UHFFFAOYSA-N,c1ccc2c(c1)ccc1c2ccc2c1c1ccccc1cc2,C22H14,xtb2,278.354,14,22,0,-54.256767715881,-53.961273986074,0.000194908402,-54.019385926018,9.295488850747,9.08497414262,0.001555692764,8.621144343834,0.279051516235,-10.0309,-7.2449,2.786015777592,0.085,227.73392,0.024 -0.021 0.010,0.02347896,0.006177275,0.004996599
1-0126,pubchemPAH,YZWGEMSQAMDWEM-UHFFFAOYSA-N,c1ccc2c(c1)ccc1c2ccc2c1c1ccccc1cc2,C22H14,r2scan,278.354,14,22,0,-846.618497608821,-846.3161014889,0.0001887762,-846.3723850994,7.347940089335,7.1305212665,0.0016698868,6.6326443814,0.2865646807,-5.3606,-2.1318,3.2288,0.09641,281.13102,0.02118 -0.02343 0.02100,0.023432,0.006076,0.004918
1-0126,pubchemPAH,YZWGEMSQAMDWEM-UHFFFAOYSA-N,c1ccc2c(c1)ccc1c2ccc2c1c1ccccc1cc2,C22H14,d4tzvp,278.354,14,22,0,-847.513710347116,-847.2113142272,0.0001887762,-847.2675978377,7.24145589313,7.02403707,0.0016698868,6.5261601863,0.2865646807,-7.9239,0.2901,8.214,0.09528,271.30457,0.02198 -0.02606 0.01558,0.023432,0.006076,0.004918
1-0127,pubchemPAH,ZBZZOHXHGVBNSK-UHFFFAOYSA-N,c1ccc2c(c1)c1cc3c4c(ccc5c4cccc5)ccc3cc1cc2,C26H16,xtb2,328.414,16,26,0,-63.852299076428,-63.508825219632,0.000215105437,-63.57295890578,10.930869197962,10.686537533126,0.001831184291,10.140569935554,0.324155673563,-9.8273,-7.4998,2.327497962795,0.08,267.707899,-0.029 0.011 -0.003,0.01239447,0.004934228,0.003619117
1-0127,pubchemPAH,ZBZZOHXHGVBNSK-UHFFFAOYSA-N,c1ccc2c(c1)c1cc3c4c(ccc5c4cccc5)ccc3cc1cc2,C26H16,r2scan,328.414,16,26,0,-1000.229066654406,-999.8776552779,0.0002076819,-999.9395756371,8.635101414478,8.3828302179,0.0019651097,7.7969326165,0.3327951419,-5.0836,-2.4875,2.5961,0.11467,340.90285,-0.03985 -0.01970 -0.00770,0.012297,0.004861,0.003564
1-0127,pubchemPAH,ZBZZOHXHGVBNSK-UHFFFAOYSA-N,c1ccc2c(c1)c1cc3c4c(ccc5c4cccc5)ccc3cc1cc2,C26H16,d4tzvp,328.414,16,26,0,-1001.282279976836,-1000.9308686003,0.0002076819,-1000.9927889595,8.508722637038,8.2564514401,0.0019651097,7.6705538403,0.3327951419,-7.5589,-0.1239,7.435,0.10774,325.85731,-0.04173 -0.00284 -0.00685,0.012297,0.004861,0.003564
1-0128,pubchemPAH,ZECLBWFOXXDCOH-UHFFFAOYSA-N,c1ccc2-c3c4c(-c2c1)c1c2ccccc2ccc1cc4ccc3,C24H14,xtb2,302.376,14,24,0,-58.541963508027,-58.233809961844,0.000201168294,-58.293788288651,9.994091900163,9.77563843242,0.001655839128,9.281949995097,0.290766680697,-9.9095,-7.8974,2.01203279536,0.474,244.998342,0.076 -0.170 0.015,0.01292999,0.007647361,0.004946204
1-0128,pubchemPAH,ZECLBWFOXXDCOH-UHFFFAOYSA-N,c1ccc2-c3c4c(-c2c1)c1c2ccccc2ccc1cc4ccc3,C24H14,r2scan,302.376,14,24,0,-922.814151922122,-922.4989746804,0.0001949242,-922.5570913356,7.8791622281,7.6536832444,0.0017771512,7.1238254842,0.2983934472,-5.1919,-2.9044,2.2875,0.51314,305.76434,0.09337 -0.17855 -0.01255,0.012812,0.007535,0.004875
1-0128,pubchemPAH,ZECLBWFOXXDCOH-UHFFFAOYSA-N,c1ccc2-c3c4c(-c2c1)c1c2ccccc2ccc1cc4ccc3,C24H14,d4tzvp,302.376,14,24,0,-923.781283674123,-923.4661064324,0.0001949242,-923.5242230876,7.763407304571,7.5379283206,0.0017771512,7.0080705618,0.2983934472,-7.6654,-0.6189,7.0465,0.42442,295.35428,0.04860 -0.15872 -0.01810,0.012812,0.007535,0.004875
1-0129,pubchemPAH,ZEIQRUVRGDCWFW-UHFFFAOYSA-N,c1cc2ccc3c(c2c2c1cc1c(c2)cccc1)c1ccccc1cc3,C26H16,xtb2,328.414,16,26,0,-63.846211590927,-63.503194857333,0.000214354197,-63.567104561273,10.924781712461,10.680907170827,0.001831935531,10.134715591047,0.323735399677,-9.777,-7.5484,2.228547842564,0.145,267.739167,0.042 0.038 -0.007,0.01065439,0.006296262,0.00429256
1-0129,pubchemPAH,ZEIQRUVRGDCWFW-UHFFFAOYSA-N,c1cc2ccc3c(c2c2c1cc1c(c2)cccc1)c1ccccc1cc3,C26H16,r2scan,328.414,16,26,0,-1000.219380272313,-999.8682109068,0.0002063046,-999.9297206199,8.625415032385,8.3733858468,0.001966487,7.7870775993,0.3326678073,-4.9882,-2.5345,2.4537,0.08323,331.57975,0.03036 -0.01203 -0.00239,0.010552,0.00616,0.004208
1-0129,pubchemPAH,ZEIQRUVRGDCWFW-UHFFFAOYSA-N,c1cc2ccc3c(c2c2c1cc1c(c2)cccc1)c1ccccc1cc3,C26H16,d4tzvp,328.414,16,26,0,-1001.270985170001,-1000.9198158045,0.0002063046,-1000.9813255176,8.497427830203,8.2453986443,0.001966487,7.6590903984,0.3326678073,-7.4749,-0.1561,7.3188,0.10376,319.41228,0.04025 0.00450 -0.00511,0.010552,0.00616,0.004208
1-0130,pubchemPAH,ZKGYPEJAMMBXSH-UHFFFAOYSA-N,c1cc2ccc3c4c2c(c1)ccc4cc1c3c2ccccc12,C22H12,xtb2,276.338,12,22,0,-53.195329509576,-52.922954372481,0.000190376616,-52.979715160479,9.021016172314,8.828899000139,0.0014773485,8.388427543597,0.256553769839,-9.6836,-7.6986,1.985057798308,0.082,219.583258,0.017 0.027 -0.000,0.02706932,0.006062531,0.004953197
1-0130,pubchemPAH,ZKGYPEJAMMBXSH-UHFFFAOYSA-N,c1cc2ccc3c4c2c(c1)ccc4cc1c3c2ccccc12,C22H12,r2scan,276.338,12,22,0,-845.362833240731,-845.0851189978,0.0001862173,-845.1406396864,7.086819092615,6.8893611858,0.0015851419,6.4167510042,0.2622466204,-4.8694,-2.6045,2.2649,0.07883,299.21979,0.01118 0.02893 -0.00001,0.026861,0.006,0.004904
1-0130,pubchemPAH,ZKGYPEJAMMBXSH-UHFFFAOYSA-N,c1cc2ccc3c4c2c(c1)ccc4cc1c3c2ccccc12,C22H12,d4tzvp,276.338,12,22,0,-846.241860859936,-845.9641466170001,0.0001862173,-846.0196673056001,6.97966546063,6.7822075536,0.0015851419,6.3095973732,0.2622466204,-7.2526,-0.3051,6.9475,0.05401,285.09952,0.00521 0.02060 -0.00002,0.026861,0.006,0.004904
1-0131,pubchemPAH,ZQYVVUIWXIUAKD-UHFFFAOYSA-N,c1ccc2c(c1)cc1c(c2)c2-c3cccc4c3c(-c2cc1)ccc4,C24H14,xtb2,302.376,14,24,0,-58.542059202489,-58.234296768725,0.00020275761,-58.294748950235,9.994187594625,9.776125239301,0.001654249812,9.282910656681,0.290162841657,-9.6572,-7.989,1.668151296047,0.589,245.016231,-0.221 -0.069 0.000,0.02081428,0.004834864,0.003923492
1-0131,pubchemPAH,ZQYVVUIWXIUAKD-UHFFFAOYSA-N,c1ccc2c(c1)cc1c(c2)c2-c3cccc4c3c(-c2cc1)ccc4,C24H14,r2scan,302.376,14,24,0,-922.816127773406,-922.5019000986,0.0001980365,-922.5609446872,7.881138079384,7.6566086626,0.0017740389,7.1276788358,0.2970669229,-4.8836,-2.9798,1.9038,0.52986,320.87582,-0.20482 -0.03881 -0.00002,0.020618,0.004797,0.003891
1-0131,pubchemPAH,ZQYVVUIWXIUAKD-UHFFFAOYSA-N,c1ccc2c(c1)cc1c(c2)c2-c3cccc4c3c(-c2cc1)ccc4,C24H14,d4tzvp,302.376,14,24,0,-923.781468963495,-923.4672412887,0.0001980365,-923.5262858773,7.763592593943,7.5390631769,0.0017740389,7.0101333515,0.2970669229,-7.3694,-0.7092,6.6602,0.34498,306.46563,-0.13495 -0.01445 -0.00001,0.020618,0.004797,0.003891
1-0132,pubchemPAH,ZSGLKCYHQXQYOW-UHFFFAOYSA-N,c1ccc2c(c1)ccc1c2ccc2c1c1ccccc1c1c2cccc1,C26H16,xtb2,328.414,16,26,0,-63.85319135936,-63.509286078062,0.000215710665,-63.573600212735,10.931761480894,10.686998391556,0.001830579063,10.141211242509,0.324517580536,-9.9806,-7.2662,2.714476130144,0.09,267.704432,-0.031 -0.016 0.004,0.01452675,0.004565267,0.003577604
1-0132,pubchemPAH,ZSGLKCYHQXQYOW-UHFFFAOYSA-N,c1ccc2c(c1)ccc1c2ccc2c1c1ccccc1c1c2cccc1,C26H16,r2scan,328.414,16,26,0,-1000.228471163711,-999.8766637617,0.0002083193,-999.9387741507,8.634505923783,8.3818387017,0.0019644723,7.7961311301,0.3331054477,-5.32,-2.1573,3.1627,0.10202,336.54318,-0.03146 -0.02491 0.00086,0.014378,0.004511,0.003526
1-0132,pubchemPAH,ZSGLKCYHQXQYOW-UHFFFAOYSA-N,c1ccc2c(c1)ccc1c2ccc2c1c1ccccc1c1c2cccc1,C26H16,d4tzvp,328.414,16,26,0,-1001.285640959822,-1000.9338335578,0.0002083193,-1000.9959439468,8.512083620024,8.2594163976,0.0019644723,7.6737088276,0.3331054477,-7.8629,0.2668,8.1297,0.09245,322.83715,-0.02792 -0.02323 -0.00188,0.014378,0.004511,0.003526
1-0133,pubchemPAH,ZTHWNIBHVLEPAL-UHFFFAOYSA-N,c1ccc2c(c1)cc1-c3c(-c1c2)ccc1c3cccc1,C20H12,xtb2,252.316,12,20,0,-48.887601001228,-48.628418654673,0.000185980817,-48.683868835308,8.299880406696,8.116234968301,0.001375338043,7.706177929796,0.244115302621,-9.781,-7.5851,2.195867260467,0.585,202.247545,0.230 0.004 -0.000,0.03596203,0.006074841,0.005196953
1-0133,pubchemPAH,ZTHWNIBHVLEPAL-UHFFFAOYSA-N,c1ccc2c(c1)cc1-c3c(-c1c2)ccc1c3cccc1,C20H12,r2scan,252.316,12,20,0,-769.14110969466,-768.8766336186,0.0001813976,-768.9307173126,6.52952772108,6.3405870202,0.0014765492,5.9003537638,0.2498096677,-4.9918,-2.5248,2.467,0.97278,270.67972,0.38227 0.01832 -0.00001,0.035684,0.00601,0.005144
1-0133,pubchemPAH,ZTHWNIBHVLEPAL-UHFFFAOYSA-N,c1ccc2c(c1)cc1-c3c(-c1c2)ccc1c3cccc1,C20H12,d4tzvp,252.316,12,20,0,-769.948238076286,-769.6837620001999,0.0001813976,-769.7378456941999,6.431664592546,6.2427238914,0.0014765492,5.8024906362,0.2498096677,-7.4948,-0.0447,7.4501,1.09715,256.87712,0.43017 0.03565 -0.00001,0.035684,0.00601,0.005144
1-0134,pubchemPAH,ZUAGUFSITPHNKC-UHFFFAOYSA-N,c1ccc2-c3c4c(-c2c1)c1ccc2c(c1cc4ccc3)cccc2,C24H14,xtb2,302.376,14,24,0,-58.546419992131,-58.238280145648,0.000204103431,-58.299133583587,9.998548384267,9.780108616224,0.001652903991,9.287295290033,0.290433829179,-9.934,-7.9272,2.006840892074,0.556,245.014106,0.184 -0.118 -0.000,0.01650541,0.005696739,0.004235044
1-0134,pubchemPAH,ZUAGUFSITPHNKC-UHFFFAOYSA-N,c1ccc2-c3c4c(-c2c1)c1ccc2c(c1cc4ccc3)cccc2,C24H14,r2scan,302.376,14,24,0,-922.820251588705,-922.5058313116,0.0001993068,-922.5652546306,7.885261894683,7.6605398756,0.0017727686,7.1319887792,0.297100849,-5.2197,-2.9138,2.3059,0.71415,315.2469,0.24053 -0.14521 0.00003,0.016343,0.005652,0.0042
1-0134,pubchemPAH,ZUAGUFSITPHNKC-UHFFFAOYSA-N,c1ccc2-c3c4c(-c2c1)c1ccc2c(c1cc4ccc3)cccc2,C24H14,d4tzvp,302.376,14,24,0,-923.788541895657,-923.4741216186,0.0001993068,-923.5335449376,7.770665526105,7.5459435068,0.0017727686,7.0173924118,0.297100849,-7.672,-0.6261,7.0459,0.54645,303.36673,0.17381 -0.12653 -0.00000,0.016343,0.005652,0.0042