id,subset,key,smiles,formula,level,mwt,nH,nC,nCl,E,H,S,G,dE,dH,dS,dG,zpe,homo,lumo,gap,Mu,alpha,tMu,rotA,rotB,rotC
3-0249,monoCl,FTQPVGAIJOUBLW-UHFFFAOYSA-N,c1ccc2c(c1)c1c2cc2c(c1)c1c2cccc1Cl,C18H9Cl,xtb2,260.723,9,18,1,-47.560866056279,-47.345819020361,0.000186723005,-47.401490484311,7.257661361324,7.108709120046,0.001202217945,6.750267838785,0.20015951332,-9.7321,-7.9273,1.804767008726,1.883,187.880189,-0.299 0.678 0.000,0.03273652,0.005673903,0.004835766
3-0249,monoCl,FTQPVGAIJOUBLW-UHFFFAOYSA-N,c1ccc2c(c1)c1c2cc2c(c1)c1c2cccc1Cl,C18H9Cl,r2scan,260.723,9,18,1,-1151.230986825399,-1151.0124505445,0.0001834214,-1151.0671376252,5.661658794957,5.5092159673,0.001290721,5.1243873771,0.2038082702,-4.7585,-2.8448,1.9137,1.83188,260.19633,-0.27063 0.66796 -0.00002,0.032495,0.005612,0.004786
3-0249,monoCl,FTQPVGAIJOUBLW-UHFFFAOYSA-N,c1ccc2c(c1)c1c2cc2c(c1)c1c2cccc1Cl,C18H9Cl,d4tzvp,260.723,9,18,1,-1151.98912839853,-1151.7705921176002,0.0001834214,-1151.8252791983002,5.580959922796,5.428517095,0.001290721,5.0436885057,0.2038082702,-7.2935,-0.218,7.0755,1.82396,243.38431,-0.24424 0.67475 -0.00002,0.032495,0.005612,0.004786
3-0250,monoCl,FTWIVVQEPILOFM-UHFFFAOYSA-N,c1c2c(cc3c(c2)cccc3)c2c(c1)c1ccc3c(c1cc2)c(Cl)ccc3,C26H15Cl,xtb2,362.859,15,26,1,-67.900055592901,-67.564821021187,0.000226744273,-67.632424826162,10.88958334341,10.653490963656,0.001836449851,10.10595343925,0.314428100864,-9.8892,-7.6606,2.228655235382,1.602,279.854905,0.052 -0.601 0.184,0.01687712,0.002774383,0.002403644
3-0250,monoCl,FTWIVVQEPILOFM-UHFFFAOYSA-N,c1c2c(cc3c(c2)cccc3)c2c(c1)c1ccc3c(c1cc2)c(Cl)ccc3,C26H15Cl,r2scan,362.859,15,26,1,-1459.803852965345,-1459.461140736,0.000219269,-1459.526515803,8.593166122649,8.3495940732,0.0019704344,7.7621089139,0.3225753076,-5.1219,-2.5561,2.5658,1.42778,379.23983,0.08684 -0.52377 0.18346,0.016684,0.002738,0.002371
3-0250,monoCl,FTWIVVQEPILOFM-UHFFFAOYSA-N,c1c2c(cc3c(c2)cccc3)c2c(c1)c1ccc3c(c1cc2)c(Cl)ccc3,C26H15Cl,d4tzvp,362.859,15,26,1,-1460.892381212936,-1460.5496689836002,0.000219269,-1460.6150440506,8.471547910898,8.2279758612,0.0019704344,7.6404907034,0.3225753076,-7.59,-0.182,7.408,1.48084,358.78695,0.13255 -0.53543 0.18752,0.016684,0.002738,0.002371
3-0251,monoCl,FUPZQEHAERWICB-UHFFFAOYSA-N,c1ccc2c(c1)ccc1c2c2c1c(Cl)cc1c2c2ccccc12,C22H11Cl,xtb2,310.783,11,22,1,-57.159396310631,-56.896043327049,0.000207653721,-56.957955283884,8.896040602344,8.712945583682,0.001476975791,8.272585250316,0.245562119148,-9.9286,-7.8381,2.090449387154,2.359,229.241052,0.045 -0.927 -0.000,0.01087521,0.00614215,0.003925238
3-0251,monoCl,FUPZQEHAERWICB-UHFFFAOYSA-N,c1ccc2c(c1)ccc1c2c2c1c(Cl)cc1c2c2ccccc12,C22H11Cl,r2scan,310.783,11,22,1,-1304.844838806299,-1304.5768076766,0.000202435,-1304.6371636779,6.952103055415,6.7643282618,0.001585836,6.2915111272,0.2505125523,-5.0543,-2.7819,2.2724,2.34423,313.20468,0.09099 -0.91777 -0.00004,0.010786,0.006079,0.003888
3-0251,monoCl,FUPZQEHAERWICB-UHFFFAOYSA-N,c1ccc2c(c1)ccc1c2c2c1c(Cl)cc1c2c2ccccc12,C22H11Cl,d4tzvp,310.783,11,22,1,-1305.75959417145,-1305.4915630418002,0.000202435,-1305.5519190431,6.850122809904,6.6623480162,0.001585836,6.1895308827,0.2505125523,-7.6081,-0.3347,7.2734,2.38774,293.43758,0.12621 -0.93087 -0.00004,0.010786,0.006079,0.003888
3-0252,monoCl,FUXNSDDHOQJFDE-UHFFFAOYSA-N,Clc1ccc2c(c1)ccc1c2cc2c(c1)ccc1c2c2ccccc2cc1,C26H15Cl,xtb2,362.859,15,26,1,-67.905515122071,-67.570238222946,0.000225736655,-67.637541606579,10.89504287258,10.658908165415,0.001837457469,10.111070219667,0.314622435024,-9.986,-7.6792,2.306755874761,2.54,279.813601,-0.793 0.602 0.085,0.01062097,0.003501412,0.002688373
3-0252,monoCl,FUXNSDDHOQJFDE-UHFFFAOYSA-N,Clc1ccc2c(c1)ccc1c2cc2c(c1)ccc1c2c2ccccc2cc1,C26H15Cl,r2scan,362.859,15,26,1,-1459.811855918886,-1459.4689878368,0.0002178379,-1459.5339362023,8.60116907619,8.357441174,0.0019718655,7.7695293132,0.3229207206,-5.2087,-2.6217,2.587,2.31424,362.41318,-0.74089 0.52351 0.07730,0.010509,0.003454,0.002649
3-0252,monoCl,FUXNSDDHOQJFDE-UHFFFAOYSA-N,Clc1ccc2c(c1)ccc1c2cc2c(c1)ccc1c2c2ccccc2cc1,C26H15Cl,d4tzvp,362.859,15,26,1,-1460.899862579265,-1460.5569944972,0.0002178379,-1460.6219428627,8.479029277227,8.2353013748,0.0019718655,7.6473895155,0.3229207206,-7.6881,-0.2633,7.4248,2.34903,344.00178,-0.73730 0.55154 0.07910,0.010509,0.003454,0.002649
3-0253,monoCl,FWFCUGOPCKDTMS-UHFFFAOYSA-N,c1ccc2c(c1)cc1c3c2cccc3c2c3c1cc(Cl)cc3ccc2,C24H13Cl,xtb2,336.821,13,24,1,-62.617861739688,-62.317449900013,0.000213907218,-62.381226337005,9.980947760799,9.770235999564,0.0016600046,9.275305626765,0.281492023587,-9.885,-7.9833,1.901711850236,2.451,257.230444,0.390 0.880 -0.064,0.01077346,0.005353627,0.003585758
3-0253,monoCl,FWFCUGOPCKDTMS-UHFFFAOYSA-N,c1ccc2c(c1)cc1c3c2cccc3c2c3c1cc(Cl)cc3ccc2,C24H13Cl,r2scan,336.821,13,24,1,-1382.422210693943,-1382.1160329813,0.0002088311,-1382.1782959747,7.870499397153,7.6540199425,0.0017801561,7.1232662548,0.2875764597,-5.0209,-2.9056,2.1153,2.30133,332.49176,0.36801 0.82461 -0.06578,0.01068,0.005307,0.003557
3-0253,monoCl,FWFCUGOPCKDTMS-UHFFFAOYSA-N,c1ccc2c(c1)cc1c3c2cccc3c2c3c1cc(Cl)cc3ccc2,C24H13Cl,d4tzvp,336.821,13,24,1,-1383.425266064898,-1383.1190883522995,0.0002088311,-1383.1813513456998,7.760113733106,7.5436342783,0.0017801561,7.0128805919,0.2875764597,-7.3903,-0.6299,6.7604,2.2534,316.73111,0.33032 0.81990 -0.06786,0.01068,0.005307,0.003557
3-0254,monoCl,FWHFDZRHHGIOLK-UHFFFAOYSA-N,c1ccc2c(c1)cc1c(c2)c2c(cc1)ccc1c2cccc1Cl,C22H13Cl,xtb2,312.799,13,22,1,-58.305302229889,-58.018275132079,0.000205461831,-58.079533576998,9.25498099373,9.0529329176,0.001562043731,8.587209578128,0.269263382315,-9.9299,-7.7468,2.183153185369,2.198,239.852552,0.837 -0.093 -0.196,0.01782798,0.004724725,0.003818706
3-0254,monoCl,FWHFDZRHHGIOLK-UHFFFAOYSA-N,c1ccc2c(c1)cc1c(c2)c2c(cc1)ccc1c2cccc1Cl,C22H13Cl,r2scan,312.799,13,22,1,-1306.195705754982,-1305.9019050409,0.000198487,-1305.961083939,7.308426632728,7.0996032157,0.0016770878,6.5995793525,0.2766983305,-5.1332,-2.6982,2.435,2.04606,302.46506,0.78270 -0.07796 -0.17107,0.017797,0.004638,0.003755
3-0254,monoCl,FWHFDZRHHGIOLK-UHFFFAOYSA-N,c1ccc2c(c1)cc1c(c2)c2c(cc1)ccc1c2cccc1Cl,C22H13Cl,d4tzvp,312.799,13,22,1,-1307.123555633947,-1306.8297549197998,0.000198487,-1306.8889338179,7.204025217721,6.9952018004,0.0016770878,6.4951779385,0.2766983305,-7.6138,-0.3356,7.2782,2.02008,290.3182,0.77195 -0.06923 -0.17583,0.017797,0.004638,0.003755
3-0255,monoCl,FWHFXZHQNLYXSJ-UHFFFAOYSA-N,c1ccc2c(c1Cl)c1cc3c4c(ccc3cc1cc2)ccc1c4cccc1,C26H15Cl,xtb2,362.859,15,26,1,-67.898068339448,-67.562738800482,0.000225102413,-67.629853084882,10.887596089957,10.651408742951,0.001838091711,10.10338169797,0.314720141406,-9.8728,-7.5841,2.288688170315,1.312,279.835789,0.359 0.370 -0.024,0.01047345,0.004775595,0.003358193
3-0255,monoCl,FWHFXZHQNLYXSJ-UHFFFAOYSA-N,c1ccc2c(c1Cl)c1cc3c4c(ccc3cc1cc2)ccc1c4cccc1,C26H15Cl,r2scan,362.859,15,26,1,-1459.80067545264,-1459.4575615278,0.0002169234,-1459.5222372486,8.589988609944,8.346014865,0.00197278,7.7578303595,0.3232728309,-5.1168,-2.5281,2.5887,1.26338,354.13013,0.36175 0.33437 -0.06620,0.010363,0.004657,0.003284
3-0255,monoCl,FWHFXZHQNLYXSJ-UHFFFAOYSA-N,c1ccc2c(c1Cl)c1cc3c4c(ccc3cc1cc2)ccc1c4cccc1,C26H15Cl,d4tzvp,362.859,15,26,1,-1460.889850752697,-1460.5467368279,0.0002169234,-1460.6114125487002,8.469017450659,8.2250437055,0.00197278,7.6368592015,0.3232728309,-7.5814,-0.161,7.4204,1.3874,338.06586,0.41651 0.34575 -0.07008,0.010363,0.004657,0.003284
3-0256,monoCl,FXAPJXIPVIYSLM-UHFFFAOYSA-N,c1ccc2c(c1)cc1c(c2)c2c(c(c1)Cl)ccc1c2ccc2c1cccc2,C26H15Cl,xtb2,362.859,15,26,1,-67.90200789029,-67.566772955111,0.00022609327,-67.634182663493,10.891535640799,10.65544289758,0.001837100854,10.107711276581,0.314551682162,-9.9827,-7.7461,2.236639173291,2.138,279.85084,-0.010 -0.841 -0.014,0.008403737,0.00419841,0.002852055
3-0256,monoCl,FXAPJXIPVIYSLM-UHFFFAOYSA-N,c1ccc2c(c1)cc1c(c2)c2c(c(c1)Cl)ccc1c2ccc2c1cccc2,C26H15Cl,r2scan,362.859,15,26,1,-1459.806773775167,-1459.4637444083,0.0002175923,-1459.5286195577,8.596086932471,8.3521977455,0.0019721111,7.7642126686,0.3230851263,-5.1745,-2.6841,2.4904,1.97506,369.24506,0.01388 -0.77642 -0.02739,0.008391,0.004117,0.002811
3-0256,monoCl,FXAPJXIPVIYSLM-UHFFFAOYSA-N,c1ccc2c(c1)cc1c(c2)c2c(c(c1)Cl)ccc1c2ccc2c1cccc2,C26H15Cl,d4tzvp,362.859,15,26,1,-1460.894474231799,-1460.5514448648998,0.0002175923,-1460.6163200142998,8.473640929761,8.2297517425,0.0019721111,7.6417666671,0.3230851263,-7.666,-0.3272,7.3388,1.9838,350.64907,-0.02946 -0.77957 -0.02307,0.008391,0.004117,0.002811
3-0257,monoCl,FXAVGYYBINPFSE-UHFFFAOYSA-N,c1cc2cc3ccccc3c3-c4c(-c(c1)c23)cc1c(Cl)cccc1c4,C24H13Cl,xtb2,336.821,13,24,1,-62.598338135383,-62.298661417966,0.000213586437,-62.362342214033,9.961424156494,9.751447517517,0.001660325381,9.256421503793,0.280730438338,-9.8889,-8.0894,1.799474994117,2.242,257.159936,0.704 -0.532 -0.000,0.01288195,0.004504513,0.003337476
3-0257,monoCl,FXAVGYYBINPFSE-UHFFFAOYSA-N,c1cc2cc3ccccc3c3-c4c(-c(c1)c23)cc1c(Cl)cccc1c4,C24H13Cl,r2scan,336.821,13,24,1,-1382.401738732511,-1382.0958968962,0.0002081056,-1382.157943585,7.850027435721,7.6338838574,0.0017808816,7.1029138651,0.2873240508,-5.0827,-3.0498,2.0329,2.23159,341.75477,0.72733 -0.49173 -0.00002,0.012779,0.004457,0.003305
3-0257,monoCl,FXAVGYYBINPFSE-UHFFFAOYSA-N,c1cc2cc3ccccc3c3-c4c(-c(c1)c23)cc1c(Cl)cccc1c4,C24H13Cl,d4tzvp,336.821,13,24,1,-1383.401587649732,-1383.0957458134,0.0002081056,-1383.1577925022002,7.73643531794,7.5202917394,0.0017808816,6.9893217484,0.2873240508,-7.4648,-0.7843,6.6805,2.15032,325.78547,0.69009 -0.48936 -0.00002,0.012779,0.004457,0.003305
3-0258,monoCl,FXUWPSXXUQLCPI-UHFFFAOYSA-N,c1ccc2c(c1)c1c3ccccc3ccc1c1c2cc2c(Cl)cccc2c1,C26H15Cl,xtb2,362.859,15,26,1,-67.903138455739,-67.567656360834,0.000225453777,-67.634875404406,10.892666206248,10.656326303303,0.001837740347,10.108404017494,0.314784133285,-9.9614,-7.6929,2.268526929496,1.944,279.824301,0.484 0.562 -0.188,0.01196041,0.003702725,0.002924535
3-0258,monoCl,FXUWPSXXUQLCPI-UHFFFAOYSA-N,c1ccc2c(c1)c1c3ccccc3ccc1c1c2cc2c(Cl)cccc2c1,C26H15Cl,r2scan,362.859,15,26,1,-1459.807547752994,-1459.46431225,0.0002180847,-1459.5293341914,8.596860910298,8.3527655872,0.0019716187,7.7649273023,0.3232687074,-5.2067,-2.6213,2.5854,1.81729,359.09266,0.45002 0.53244 -0.15865,0.01183,0.003663,0.002885
3-0258,monoCl,FXUWPSXXUQLCPI-UHFFFAOYSA-N,c1ccc2c(c1)c1c3ccccc3ccc1c1c2cc2c(Cl)cccc2c1,C26H15Cl,d4tzvp,362.859,15,26,1,-1460.897579892609,-1460.5543443896,0.0002180847,-1460.619366331,8.476746590571,8.2326512672,0.0019716187,7.6448129838,0.3232687074,-7.6811,-0.25,7.4311,1.79502,342.52075,0.40061 0.55902 -0.16040,0.01183,0.003663,0.002885
3-0259,monoCl,FYGIMAQCUWSNHX-UHFFFAOYSA-N,c1ccc2c(c1Cl)cc1c3c2cccc3c2c3c1cccc3ccc2,C24H13Cl,xtb2,336.821,13,24,1,-62.617249480439,-62.316729100302,0.000212958825,-62.380222773977,9.98033550155,9.769515199853,0.001660952993,9.274302063737,0.281638207902,-9.7939,-7.9058,1.888145044657,1.888,257.231468,-0.172 0.721 -0.053,0.01248275,0.005324729,0.003742538
3-0259,monoCl,FYGIMAQCUWSNHX-UHFFFAOYSA-N,c1ccc2c(c1Cl)cc1c3c2cccc3c2c3c1cccc3ccc2,C24H13Cl,r2scan,336.821,13,24,1,-1382.42119908057,-1382.1151530346,0.0002097986,-1382.1777044963,7.86948778378,7.6531399958,0.0017791886,7.1226747764,0.2872953309,-4.9488,-2.8453,2.1035,1.77867,329.71684,-0.16848 0.67680 -0.05684,0.012356,0.00527,0.003706
3-0259,monoCl,FYGIMAQCUWSNHX-UHFFFAOYSA-N,c1ccc2c(c1Cl)cc1c3c2cccc3c2c3c1cccc3ccc2,C24H13Cl,d4tzvp,336.821,13,24,1,-1383.424600676454,-1383.1185546305,0.0002097986,-1383.1811060922,7.759448344662,7.5431005565,0.0017791886,7.0126353384,0.2872953309,-7.3095,-0.5708,6.7387,1.77111,314.73073,-0.12362 0.68342 -0.05640,0.012356,0.00527,0.003706
3-0260,monoCl,FZHOOZNENMXZRA-UHFFFAOYSA-N,Clc1ccc2c(c1)c1c2cc2c(c1)cc1c(c2)c2c1cccc2,C22H11Cl,xtb2,310.783,11,22,1,-57.16432805891,-56.901176180462,0.000206399476,-56.962714184362,8.900972350623,8.718078437095,0.001478230036,8.277344150794,0.245430215417,-9.921,-7.6606,2.260457796313,2.561,228.997596,-0.948 -0.341 -0.000,0.043026,0.002694775,0.002535946
3-0260,monoCl,FZHOOZNENMXZRA-UHFFFAOYSA-N,Clc1ccc2c(c1)c1c2cc2c(c1)cc1c(c2)c2c1cccc2,C22H11Cl,r2scan,310.783,11,22,1,-1304.850238930554,-1304.5825078291,0.0002015911,-1304.6426122022,6.95750317967,6.7700284143,0.0015866799,6.2969596515,0.2503375444,-4.9895,-2.5869,2.4026,2.38474,348.03526,-0.87754 -0.33190 -0.00003,0.042702,0.002659,0.002503
3-0260,monoCl,FZHOOZNENMXZRA-UHFFFAOYSA-N,Clc1ccc2c(c1)c1c2cc2c(c1)cc1c(c2)c2c1cccc2,C22H11Cl,d4tzvp,310.783,11,22,1,-1305.766896842544,-1305.499165741,0.0002015911,-1305.5592701141002,6.857425480998,6.6699507154,0.0015866799,6.1968819537,0.2503375444,-7.4804,-0.063,7.4174,2.34265,317.16213,-0.85584 -0.34201 -0.00003,0.042702,0.002659,0.002503
3-0261,monoCl,FZQYUSBUFQPJLW-UHFFFAOYSA-N,c1ccc2c(c1)c1c(c3c2c2ccccc2c(c3)Cl)cc2c(c1)cccc2,C26H15Cl,xtb2,362.859,15,26,1,-67.9029020992,-67.56744673304,0.000225990809,-67.634825892886,10.892429849709,10.656116675509,0.001837203315,10.108354505974,0.314717306193,-9.9547,-7.689,2.265742869204,2.047,279.842799,-0.237 -0.718 0.276,0.009168506,0.004347539,0.003069706
3-0261,monoCl,FZQYUSBUFQPJLW-UHFFFAOYSA-N,c1ccc2c(c1)c1c(c3c2c2ccccc2c(c3)Cl)cc2c(c1)cccc2,C26H15Cl,r2scan,362.859,15,26,1,-1459.806957054007,-1459.463671535,0.0002180882,-1459.5286945402,8.596270211311,8.3521248722,0.0019716152,7.7642876511,0.3232967885,-5.1905,-2.5939,2.5966,1.84332,361.19212,-0.19271 -0.65411 0.24684,0.009034,0.004325,0.003033
3-0261,monoCl,FZQYUSBUFQPJLW-UHFFFAOYSA-N,c1ccc2c(c1)c1c(c3c2c2ccccc2c(c3)Cl)cc2c(c1)cccc2,C26H15Cl,d4tzvp,362.859,15,26,1,-1460.897084020595,-1460.5537985016,0.0002180882,-1460.6188215068,8.476250718557,8.2321053792,0.0019716152,7.6442681596,0.3232967885,-7.6621,-0.2333,7.4288,1.8744,344.27966,-0.20497 -0.66432 0.24592,0.009034,0.004325,0.003033
3-0262,monoCl,FZSQMKGNKYELCN-UHFFFAOYSA-N,c1ccc2c(c1)ccc1c2c2c1ccc1c2c2c1ccc(c2)Cl,C22H11Cl,xtb2,310.783,11,22,1,-57.159011546888,-56.895804810812,0.000206858854,-56.957479778266,8.895655838601,8.712707067445,0.001477770658,8.272109744698,0.245482827643,-9.8983,-7.7966,2.1017806253,2.227,229.382126,0.562 0.672 0.000,0.01367841,0.004758897,0.003530567
3-0262,monoCl,FZSQMKGNKYELCN-UHFFFAOYSA-N,c1ccc2c(c1)ccc1c2c2c1ccc1c2c2c1ccc(c2)Cl,C22H11Cl,r2scan,310.783,11,22,1,-1304.844128160504,-1304.5761733302,0.0002015749,-1304.636272881,6.95139240962,6.7636939154,0.0015866961,6.2906203303,0.2505752237,-5.0113,-2.7448,2.2665,2.09591,315.61529,0.57118 0.59471 0.00004,0.013503,0.00472,0.003497
3-0262,monoCl,FZSQMKGNKYELCN-UHFFFAOYSA-N,c1ccc2c(c1)ccc1c2c2c1ccc1c2c2c1ccc(c2)Cl,C22H11Cl,d4tzvp,310.783,11,22,1,-1305.758861590473,-1305.4909067601998,0.0002015749,-1305.5510063109998,6.849390228927,6.6616917346,0.0015866961,6.1886181506,0.2505752237,-7.5543,-0.2987,7.2556,2.13129,294.09179,0.57207 0.61304 0.00006,0.013503,0.00472,0.003497
3-0263,monoCl,FZZGJIVVHZXHDV-UHFFFAOYSA-N,c1ccc2c(c1)cc1c(c2)ccc2c1cc1c(c2Cl)ccc2c1cccc2,C26H15Cl,xtb2,362.859,15,26,1,-67.907178953529,-67.572003523038,0.000228088742,-67.640008181398,10.896706704038,10.660673465507,0.001835105382,10.113536794486,0.314255543721,-10.0357,-7.664,2.371720256727,2.043,279.890953,-0.240 -0.767 -0.000,0.009907583,0.00364375,0.002664
3-0263,monoCl,FZZGJIVVHZXHDV-UHFFFAOYSA-N,c1ccc2c(c1)cc1c(c2)ccc2c1cc1c(c2Cl)ccc2c1cccc2,C26H15Cl,r2scan,362.859,15,26,1,-1459.813530981449,-1459.4713613642,0.0002213667,-1459.5373618416,8.602844138753,8.3598147014,0.0019683367,7.7729549525,0.3217495856,-5.2791,-2.5808,2.6983,1.97408,377.05441,-0.23011 -0.74177 0.00002,0.009747,0.003632,0.002646
3-0263,monoCl,FZZGJIVVHZXHDV-UHFFFAOYSA-N,c1ccc2c(c1)cc1c(c2)ccc2c1cc1c(c2Cl)ccc2c1cccc2,C26H15Cl,d4tzvp,362.859,15,26,1,-1460.902197039958,-1460.5600274228,0.0002213667,-1460.6260279002,8.48136373792,8.2383343004,0.0019683367,7.651474553,0.3217495856,-7.7692,-0.2002,7.569,1.94827,355.77267,-0.22419 -0.73297 0.00001,0.009747,0.003632,0.002646
3-0264,monoCl,GASQBQMWKDFQAL-UHFFFAOYSA-N,c1ccc2c(c1)c1ccc3c(c1c1c2c2cccc(c2cc1)Cl)cccc3,C26H15Cl,xtb2,362.859,15,26,1,-67.89753535779,-67.561887648385,0.000224487643,-67.628818639276,10.887063108299,10.650557590854,0.001838706481,10.102347252364,0.315077197502,-10.0253,-7.5689,2.456475980482,2.135,279.794669,-0.321 0.725 0.279,0.008410162,0.004903494,0.00321566
3-0264,monoCl,GASQBQMWKDFQAL-UHFFFAOYSA-N,c1ccc2c(c1)c1ccc3c(c1c1c2c2cccc(c2cc1)Cl)cccc3,C26H15Cl,r2scan,362.859,15,26,1,-1459.800259203661,-1459.4566486595,0.0002163142,-1459.5211427263,8.589572360965,8.3451019967,0.0019733892,7.7567358372,0.3238122577,-5.3002,-2.4794,2.8208,1.99607,350.52068,-0.30586 0.66930 0.27419,0.008346,0.004814,0.003162
3-0264,monoCl,GASQBQMWKDFQAL-UHFFFAOYSA-N,c1ccc2c(c1)c1ccc3c(c1c1c2c2cccc(c2cc1)Cl)cccc3,C26H15Cl,d4tzvp,362.859,15,26,1,-1460.890574263253,-1460.5469637191,0.0002163142,-1460.6114577859,8.469740961215,8.2252705967,0.0019733892,7.6369044387,0.3238122577,-7.7895,-0.0946,7.6949,1.96905,335.60531,-0.27572 0.66889 0.27689,0.008346,0.004814,0.003162
3-0265,monoCl,GAYRDVHKRPWINT-UHFFFAOYSA-N,c1c(Cl)cc2-c3c4c(-c2c1)cccc4c1c(c3)ccc2c1cccc2,C24H13Cl,xtb2,336.821,13,24,1,-62.601047804127,-62.300915273697,0.000212382824,-62.364237212604,9.964133825238,9.753701373248,0.001661528994,9.258316502364,0.281369919962,-10.2574,-7.899,2.35838556784,2.893,257.119178,0.987 -0.556 -0.105,0.01762034,0.003659278,0.003064682
3-0265,monoCl,GAYRDVHKRPWINT-UHFFFAOYSA-N,c1c(Cl)cc2-c3c4c(-c2c1)cccc4c1c(c3)ccc2c1cccc2,C24H13Cl,r2scan,336.821,13,24,1,-1382.403965133713,-1382.0971305422,0.0002059059,-1382.1585213878,7.852253836923,7.6351175034,0.0017830813,7.1034916679,0.2886681862,-5.5502,-2.84,2.7102,2.6464,332.83089,0.90211 -0.51010 -0.09993,0.017461,0.003619,0.003026
3-0265,monoCl,GAYRDVHKRPWINT-UHFFFAOYSA-N,c1c(Cl)cc2-c3c4c(-c2c1)cccc4c1c(c3)ccc2c1cccc2,C24H13Cl,d4tzvp,336.821,13,24,1,-1383.407660086547,-1383.100825495,0.0002059059,-1383.1622163406,7.742507754755,7.525371421,0.0017830813,6.9937455868,0.2886681862,-8.0742,-0.5254,7.5488,2.47326,316.04831,0.82301 -0.50849 -0.10435,0.017461,0.003619,0.003026
3-0266,monoCl,GBKYSNGCMCUHCE-UHFFFAOYSA-N,c1ccc2c(c1)cc1c(c2)c2ccc3c(c2cc1Cl)cccc3,C22H13Cl,xtb2,312.799,13,22,1,-58.311473110983,-58.024376236483,0.000208010412,-58.086394540778,9.261151874824,9.059034022004,0.00155949515,8.594070541908,0.26903933552,-9.9575,-7.8196,2.137904373228,1.939,239.891122,-0.082 0.759 -0.000,0.01713133,0.004766411,0.003728922
3-0266,monoCl,GBKYSNGCMCUHCE-UHFFFAOYSA-N,c1ccc2c(c1)cc1c(c2)c2ccc3c(c2cc1Cl)cccc3,C22H13Cl,r2scan,312.799,13,22,1,-1306.203963259936,-1305.9106262626,0.0002017851,-1305.9707884862,7.316684137682,7.1083244374,0.0016737897,6.6092838997,0.2758105355,-5.1691,-2.7061,2.463,1.7956,311.02294,-0.06105 0.70379 -0.00002,0.016866,0.004738,0.003699
3-0266,monoCl,GBKYSNGCMCUHCE-UHFFFAOYSA-N,c1ccc2c(c1)cc1c(c2)c2ccc3c(c2cc1Cl)cccc3,C22H13Cl,d4tzvp,312.799,13,22,1,-1307.13314344249,-1306.8398064452,0.0002017851,-1306.8999686688,7.213613026264,7.0052533258,0.0016737897,6.5062127894,0.2758105355,-7.6385,-0.3461,7.2924,1.82231,298.04915,-0.08347 0.71206 0.00000,0.016866,0.004738,0.003699
3-0267,monoCl,GBLFFTLCBFFJLD-UHFFFAOYSA-N,c1ccc2c(c1)cc1-c3c(-c1c2)c1cc(Cl)ccc1c1c3cccc1,C24H13Cl,xtb2,336.821,13,24,1,-62.53656889065,-62.237314704502,0.000218529931,-62.302469403421,9.899654911761,9.690100804053,0.001655381887,9.196548693181,0.279852254819,-9.8708,-7.8917,1.979094837665,2.247,254.270084,-0.091 0.879 -0.000,0.009257492,0.004598677,0.003072438
3-0267,monoCl,GBLFFTLCBFFJLD-UHFFFAOYSA-N,c1ccc2c(c1)cc1-c3c(-c1c2)c1cc(Cl)ccc1c1c3cccc1,C24H13Cl,r2scan,336.821,13,24,1,-1382.335185728774,-1382.0304297275,0.0002126437,-1382.0938294489,7.783474431984,7.5684166887,0.0017763435,7.038799729,0.2856560401,-5.0509,-2.7758,2.2751,2.2262,348.1392,-0.31610 0.81681 -0.00001,0.009179,0.004557,0.003045