id,subset,key,smiles,formula,level,mwt,nH,nC,nCl,E,H,S,G,dE,dH,dS,dG,zpe,homo,lumo,gap,Mu,alpha,tMu,rotA,rotB,rotC
2-0001,pubchemPCH,AAUJSCRITBXDJH-UHFFFAOYSA-N,Clc1ccc2c(c1)ccc(c2Cl)Cl,C10H5Cl3,xtb2,231.509,5,10,3,-37.626997328349,-37.500662570876,0.000167243776,-37.550526302705,4.279044390136,4.195199143503,0.000747004892,3.972479634589,0.114322182272,-10.7427,-7.9154,2.827253591074,1.29,144.599878,0.208 0.463 -0.000,0.04608154,0.009533937,0.007899573
2-0001,pubchemPCH,AAUJSCRITBXDJH-UHFFFAOYSA-N,Clc1ccc2c(c1)ccc(c2Cl)Cl,C10H5Cl3,r2scan,231.509,5,10,3,-1764.535425310646,-1764.4062471339,0.0001630594,-1764.4548633007,3.384926144182,3.2982366159,0.0008039532,3.058537885,0.1175471021,-5.9794,-2.5768,3.4026,1.1607,159.13349,0.17161 0.42317 -0.00010,0.045289,0.009423,0.0078
2-0001,pubchemPCH,AAUJSCRITBXDJH-UHFFFAOYSA-N,Clc1ccc2c(c1)ccc(c2Cl)Cl,C10H5Cl3,d4tzvp,231.509,5,10,3,-1765.05894248784,-1764.9297643111,0.0001630594,-1764.9783804779,3.34876880457,3.2620792763,0.0008039532,3.0223805459,0.1175471021,-8.7516,-0.0238,8.7278,1.21584,155.28985,0.17850 0.44379 -0.00011,0.045289,0.009423,0.0078
2-0002,pubchemPCH,ABSKRMOZCDDGDC-UHFFFAOYSA-N,c1cccc2c1cc1c(c2)c(Cl)c2c(c1Cl)cccc2,C18H10Cl2,xtb2,297.184,10,18,2,-52.756198772499,-52.525792758011,0.000194899819,-52.583902139169,7.576986178647,7.417396015559,0.001293821577,7.031643111655,0.213962589168,-9.8408,-8.3258,1.514990417752,0.537,212.196054,0.211 0.000 -0.000,0.01718664,0.006935441,0.004941403
2-0002,pubchemPCH,ABSKRMOZCDDGDC-UHFFFAOYSA-N,c1cccc2c1cc1c(c2)c(Cl)c2c(c1Cl)cccc2,C18H10Cl2,r2scan,297.184,10,18,2,-1612.160175841469,-1611.9245937757,0.0001893824,-1611.9810581435,5.979582836889,5.8148151853,0.0013889756,5.4006919911,0.2196076113,-4.9522,-3.2651,1.6871,0.44937,272.60554,0.17679 -0.00006 0.00001,0.016877,0.006886,0.00489
2-0002,pubchemPCH,ABSKRMOZCDDGDC-UHFFFAOYSA-N,c1cccc2c1cc1c(c2)c(Cl)c2c(c1Cl)cccc2,C18H10Cl2,d4tzvp,297.184,10,18,2,-1612.96141438796,-1612.7258323222002,0.0001893824,-1612.78229669,5.895910895306,5.7311432436,0.0013889756,5.3170200504,0.2196076113,-7.338,-1.0293,6.3087,0.41315,265.18957,0.16254 -0.00000 -0.00000,0.016877,0.006886,0.00489
2-0003,pubchemPCH,ACZBRYOARGHKQX-UHFFFAOYSA-N,c1ccc2c(c1)c1c(c3c2cccc3)c2cc(Cl)ccc2c2c1cc(Cl)cc2,C26H14Cl2,xtb2,397.304,14,26,2,-71.955746853318,-71.628153518367,0.000233525023,-71.697779004082,10.856232232802,10.627781089811,0.001846573497,10.077225200484,0.30562659149,-10.2049,-7.7409,2.464079162498,0.817,291.956126,-0.322 -0.000 -0.000,0.006009288,0.004578891,0.002904614
2-0003,pubchemPCH,ACZBRYOARGHKQX-UHFFFAOYSA-N,c1ccc2c(c1)c1c(c3c2cccc3)c2cc(Cl)ccc2c2c1cc(Cl)cc2,C26H14Cl2,r2scan,397.304,14,26,2,-1919.387658206256,-1919.0523818664,0.0002242462,-1919.1192408775,8.560249760792,8.3241136008,0.001982369,7.7330701199,0.3141022047,-5.4468,-2.5926,2.8542,0.70998,362.04925,-0.27932 -0.00016 -0.00001,0.005936,0.004538,0.002864
2-0003,pubchemPCH,ACZBRYOARGHKQX-UHFFFAOYSA-N,c1ccc2c(c1)c1c(c3c2cccc3)c2cc(Cl)ccc2c2c1cc(Cl)cc2,C26H14Cl2,d4tzvp,397.304,14,26,2,-1920.514801473617,-1920.1795251337,0.0002242462,-1920.2463841448,8.446692209339,8.2105560491,0.001982369,7.6195125696,0.3141022047,-7.912,-0.1985,7.7135,0.62596,345.93735,-0.24627 -0.00014 -0.00002,0.005936,0.004538,0.002864
2-0004,pubchemPCH,ADBPUTUHSVGVSW-UHFFFAOYSA-N,Clc1ccc2-c3c4c(-c2c1)cccc4c(cc3)Cl,C16H8Cl2,xtb2,271.146,8,16,2,-47.464608152742,-47.268993167394,0.000183385045,-47.323669418664,6.658953829492,6.524712582024,0.001116054045,6.191961067822,0.181148428426,-10.4946,-8.1564,2.338147902758,0.743,189.400809,0.263 -0.127 0.000,0.03244561,0.006048961,0.005098439
2-0004,pubchemPCH,ADBPUTUHSVGVSW-UHFFFAOYSA-N,Clc1ccc2-c3c4c(-c2c1)cccc4c(cc3)Cl,C16H8Cl2,r2scan,271.146,8,16,2,-1534.768573192912,-1534.5689180219,0.00017963,-1534.6224747092,5.246955734238,5.1086730555,0.0011980118,4.751485726,0.185536907,-5.7216,-2.9967,2.7249,0.71687,226.5877,0.24989 -0.13075 -0.00000,0.032236,0.005976,0.005042
2-0004,pubchemPCH,ADBPUTUHSVGVSW-UHFFFAOYSA-N,Clc1ccc2-c3c4c(-c2c1)cccc4c(cc3)Cl,C16H8Cl2,d4tzvp,271.146,8,16,2,-1535.489062684709,-1535.2894075137,0.00017963,-1535.342964201,5.179240162301,5.0409574835,0.0011980118,4.6837701548,0.185536907,-8.4179,-0.6169,7.801,0.62324,218.33881,0.19062 -0.15423 -0.00001,0.032236,0.005976,0.005042
2-0005,pubchemPCH,ADRYPAGQXFMVFP-UHFFFAOYSA-N,c1ccc(c2c1cccc2Cl)Cl,C10H6Cl2,xtb2,197.064,6,10,2,-33.571797142071,-33.437192129328,0.000152802914,-33.482750318266,4.312886574883,4.22077107298,0.000744541358,3.998786066836,0.123950130577,-10.4511,-7.6108,2.840288677572,2.967,132.271559,-0.000 1.167 -0.000,0.03016295,0.02819144,0.01457195
2-0005,pubchemPCH,ADRYPAGQXFMVFP-UHFFFAOYSA-N,c1ccc(c2c1cccc2Cl)Cl,C10H6Cl2,r2scan,197.064,6,10,2,-1304.942972901283,-1304.8054211626,0.0001512517,-1304.8505168439,3.409195337587,3.3141322474,0.0007988491,3.0759552967,0.1271511987,-5.6669,-2.3635,3.3034,3.03942,139.83883,-0.00029 1.19578 -0.00006,0.029199,0.027765,0.014232
2-0005,pubchemPCH,ADRYPAGQXFMVFP-UHFFFAOYSA-N,c1ccc(c2c1cccc2Cl)Cl,C10H6Cl2,d4tzvp,197.064,6,10,2,-1305.431070916747,-1305.293519178,0.0001512517,-1305.3386148593002,3.368173195717,3.2731101054,0.0007988491,3.0349331553,0.1271511987,-8.418,0.174,8.592,3.15239,138.19172,-0.00029 1.24022 -0.00006,0.029199,0.027765,0.014232
2-0006,pubchemPCH,AELIBINYEOCXQT-UHFFFAOYSA-N,c1ccc2c(c1Cl)c1c(Cl)cccc1c(c2Cl)Cl,C14H6Cl4,xtb2,316.014,6,14,4,-51.257905360821,-51.091904075391,0.000194210539,-51.149807947519,5.860759038251,5.751410433941,0.001032631087,5.443531474675,0.149913145966,-10.6412,-8.0036,2.637631142301,0.269,196.993348,-0.000 -0.106 0.000,0.01366713,0.009097373,0.00596764
2-0006,pubchemPCH,AELIBINYEOCXQT-UHFFFAOYSA-N,c1ccc2c(c1Cl)c1c(Cl)cccc1c(c2Cl)Cl,C14H6Cl4,r2scan,316.014,6,14,4,-2377.700906932037,-2377.5308649158,0.0001872197,-2377.5866844825,4.610278442363,4.4968879574,0.0011108333,4.1656928957,0.1545952533,-5.84,-2.7289,3.1111,0.16134,220.49238,-0.00001 -0.06348 -0.00001,0.013317,0.008987,0.005926
2-0006,pubchemPCH,AELIBINYEOCXQT-UHFFFAOYSA-N,c1ccc2c(c1Cl)c1c(Cl)cccc1c(c2Cl)Cl,C14H6Cl4,d4tzvp,316.014,6,14,4,-2378.421018216385,-2378.2509762002,0.0001872197,-2378.3067957669,4.562265685063,4.4488752002,0.0011108333,4.1176801391,0.1545952533,-8.5433,-0.2769,8.2664,0.13687,213.74845,-0.00001 -0.05385 -0.00001,0.013317,0.008987,0.005926
2-0007,pubchemPCH,AFJHWRJDNQTIAO-UHFFFAOYSA-N,c1c2c(ccc(c2)Cl)cc2c1cc(cc2)Cl,C14H8Cl2,xtb2,247.124,8,14,2,-43.170562852099,-42.988183275846,0.000174125877,-43.040098906001,5.951501271579,5.825774376446,0.001018906957,5.521987266529,0.168954124273,-10.2976,-8.0983,2.199310319998,1.729,172.096702,-0.000 -0.680 0.000,0.04810215,0.005746652,0.005133379
2-0007,pubchemPCH,AFJHWRJDNQTIAO-UHFFFAOYSA-N,c1c2c(ccc(c2)Cl)cc2c1cc(cc2)Cl,C14H8Cl2,r2scan,247.124,8,14,2,-1458.563063453471,-1458.3768066671,0.0001706951,-1458.4276994034,4.705878169333,4.5762729143,0.0010935343,4.2502355536,0.1731033972,-5.4071,-2.896,2.5111,1.79627,212.75037,-0.00001 -0.70669 0.00007,0.047477,0.0057,0.005089
2-0007,pubchemPCH,AFJHWRJDNQTIAO-UHFFFAOYSA-N,c1c2c(ccc(c2)Cl)cc2c1cc(cc2)Cl,C14H8Cl2,d4tzvp,247.124,8,14,2,-1459.206528138127,-1459.0202713517,0.0001706951,-1459.0711640880002,4.642327531285,4.5127222761,0.0010935343,4.1866849162,0.1731033972,-7.9685,-0.4794,7.4891,1.79898,205.42555,-0.00001 -0.70776 0.00007,0.047477,0.0057,0.005089
2-0008,pubchemPCH,AGUQSHNDMREDCR-UHFFFAOYSA-N,Clc1c(Cl)c(Cl)c2c(c1Cl)c1c(Cl)c(Cl)c(c(c1c(c2Cl)Cl)Cl)Cl,C14Cl10,xtb2,522.684,0,14,10,-75.515102374044,-75.399103164954,0.000256327626,-75.475527246508,5.583701825324,5.524355297354,0.001071940376,5.204756273548,0.091791112816,-11.0433,-8.9288,2.114438833991,0.059,272.962269,0.000 0.023 -0.000,0.00581065,0.003277767,0.002250811
2-0008,pubchemPCH,AGUQSHNDMREDCR-UHFFFAOYSA-N,Clc1c(Cl)c(Cl)c2c(c1Cl)c1c(Cl)c(Cl)c(c(c1c(c2Cl)Cl)Cl)Cl,C14Cl10,r2scan,522.684,0,14,10,-5135.123882406846,-5135.005176391,0.0002459574,-5135.0785085971,4.332924300564,4.2708698158,0.0011535664,3.9269337993,0.0955012621,-6.0876,-3.582,2.5056,0.06285,326.19448,-0.00005 -0.02473 -0.00001,0.005726,0.003207,0.002275
2-0008,pubchemPCH,AGUQSHNDMREDCR-UHFFFAOYSA-N,Clc1c(Cl)c(Cl)c2c(c1Cl)c1c(Cl)c(Cl)c(c(c1c(c2Cl)Cl)Cl)Cl,C14Cl10,d4tzvp,522.684,0,14,10,-5136.062115137413,-5135.9434091216,0.0002459574,-5136.0167413277,4.319706832651,4.2576523484,0.0011535664,3.9137163319,0.0955012621,-8.7889,-1.2596,7.5293,0.05532,306.15607,-0.00002 -0.02176 0.00001,0.005726,0.003207,0.002275
2-0009,pubchemPCH,AHVPSLVSLOCVNV-UHFFFAOYSA-N,c1c(Cl)cc2c(c1)c1c(c3c2cc(Cl)cc3)c2ccccc2c2c1cccc2,C26H14Cl2,xtb2,397.304,14,26,2,-71.955631817272,-71.628043430613,0.000233223353,-71.697578973281,10.856117196756,10.627671002057,0.001846875167,10.077025169683,0.305642972917,-10.1329,-7.72,2.412882777998,3.67,291.963566,-1.444 -0.000 0.000,0.006106204,0.004256113,0.002796889
2-0009,pubchemPCH,AHVPSLVSLOCVNV-UHFFFAOYSA-N,c1c(Cl)cc2c(c1)c1c(c3c2cc(Cl)cc3)c2ccccc2c2c1cccc2,C26H14Cl2,r2scan,397.304,14,26,2,-1919.387843529233,-1919.0525611948,0.0002243786,-1919.1194596869,8.560435083769,8.3242929292,0.0019822366,7.7332889293,0.3141310527,-5.3426,-2.5386,2.804,3.4603,365.75818,-1.36136 -0.00001 0.00000,0.006071,0.0042,0.002756
2-0009,pubchemPCH,AHVPSLVSLOCVNV-UHFFFAOYSA-N,c1c(Cl)cc2c(c1)c1c(c3c2cc(Cl)cc3)c2ccccc2c2c1cccc2,C26H14Cl2,d4tzvp,397.304,14,26,2,-1920.514862765795,-1920.1795804314,0.0002243786,-1920.2464789235,8.446753501517,8.2106113468,0.0019822366,7.6196073483,0.3141310527,-7.802,-0.1678,7.6342,3.49702,348.41764,-1.37581 -0.00002 0.00001,0.006071,0.0042,0.002756
2-0010,pubchemPCH,AKBNVSSMFHBHPB-UHFFFAOYSA-N,Clc1c2c(c(c3c1c(Cl)c1c(c3Cl)c(Cl)c(c(c1Cl)Cl)Cl)Cl)c(Cl)c1c(c2Cl)c(Cl)c(c(c1Cl)Cl)Cl,C22Cl14,xtb2,760.584,0,22,14,-110.853810098245,-110.675779786512,0.000332099425,-110.77479522995,8.645938038761,8.552886748708,0.001655163285,8.059399814162,0.142827492363,-10.5722,-9.6032,0.969014804069,0.053,402.890758,0.000 0.000 0.021,0.004148422,0.001002776,0.0008240367
2-0010,pubchemPCH,AKBNVSSMFHBHPB-UHFFFAOYSA-N,Clc1c2c(c(c3c1c(Cl)c1c(c3Cl)c(Cl)c(c(c1Cl)Cl)Cl)Cl)c(Cl)c1c(c2Cl)c(Cl)c(c(c1Cl)Cl)Cl,C22Cl14,r2scan,760.584,0,22,14,-7280.576787330631,-7280.3951775287,0.0003181171,-7280.4900241335,6.672127372393,6.5754948671,0.0017773111,6.0455892565,0.1476308183,-5.5028,-4.5213,0.9815,0.0133,553.49451,0.00000 -0.00003 -0.00523,0.00408,0.000997,0.000826
2-0010,pubchemPCH,AKBNVSSMFHBHPB-UHFFFAOYSA-N,Clc1c2c(c(c3c1c(Cl)c1c(c3Cl)c(Cl)c(c(c1Cl)Cl)Cl)Cl)c(Cl)c1c(c2Cl)c(Cl)c(c(c1Cl)Cl)Cl,C22Cl14,d4tzvp,760.584,0,22,14,-7281.961713472379,-7281.7801036705,0.0003181171,-7281.8749502753,6.627595547034,6.5309630425,0.0017773111,6.0010574319,0.1476308183,-7.827,-2.5597,5.2673,0.03986,519.64322,-0.00000 0.00016 0.01568,0.00408,0.000997,0.000826
2-0011,pubchemPCH,AMCBMCWLCDERHY-UHFFFAOYSA-N,c1ccc2c(c1)cc(cc2Cl)Cl,C10H6Cl2,xtb2,197.064,6,10,2,-33.577869871857,-33.443277992098,0.000156279095,-33.489872604361,4.318959304669,4.22685693575,0.000741065177,4.005908352931,0.123890292991,-10.6553,-7.6667,2.988602691612,2.23,132.244035,0.782 -0.397 -0.000,0.03252759,0.01920968,0.01207726
2-0011,pubchemPCH,AMCBMCWLCDERHY-UHFFFAOYSA-N,c1ccc2c(c1)cc(cc2Cl)Cl,C10H6Cl2,r2scan,197.064,6,10,2,-1304.956662028169,-1304.8189729502,0.000153323,-1304.8646861992,3.422884464473,3.327684035,0.0007967778,3.090124652,0.1273350032,-5.8746,-2.3958,3.4788,2.11779,142.59041,0.74956 -0.36381 -0.00000,0.031984,0.01903,0.011931
2-0011,pubchemPCH,AMCBMCWLCDERHY-UHFFFAOYSA-N,c1ccc2c(c1)cc(cc2Cl)Cl,C10H6Cl2,d4tzvp,197.064,6,10,2,-1305.444207949502,-1305.3065188715,0.000153323,-1305.3522321204998,3.381310228472,3.2861097989,0.0007967778,3.0485504165,0.1273350032,-8.6364,0.1687,8.8051,2.14307,140.42742,0.75360 -0.37811 -0.00000,0.031984,0.01903,0.011931
2-0012,pubchemPCH,AMEAOPJZOVYOHS-UHFFFAOYSA-N,c1ccc2c(c1)c1ccc3c(c1cc2)cccc3Cl,C18H11Cl,xtb2,262.739,11,18,1,-48.719053382346,-48.479780797331,0.000187078236,-48.535558173497,7.628883159519,7.460426425904,0.001284738764,7.077381562669,0.224125704666,-10.1945,-7.5104,2.684082062793,2.048,199.898706,-0.572 0.567 -0.000,0.03058507,0.006581928,0.005416331
2-0012,pubchemPCH,AMEAOPJZOVYOHS-UHFFFAOYSA-N,c1ccc2c(c1)c1ccc3c(c1cc2)cccc3Cl,C18H11Cl,r2scan,262.739,11,18,1,-1152.597319339386,-1152.3528327902,0.0001822965,-1152.4071845028,6.033447937574,5.8597758026,0.0013791497,5.4485822189,0.2297946876,-5.4716,-2.3096,3.162,1.92319,238.71015,-0.53999 0.52999 -0.00003,0.030303,0.006512,0.00536
2-0012,pubchemPCH,AMEAOPJZOVYOHS-UHFFFAOYSA-N,c1ccc2c(c1)c1ccc3c(c1cc2)cccc3Cl,C18H11Cl,d4tzvp,262.739,11,18,1,-1153.369396970984,-1153.1249104218,0.0001822965,-1153.1792621344,5.95116944057,5.7774973054,0.0013791497,5.3663037228,0.2297946876,-8.0474,0.1433,8.1907,1.91729,232.05932,-0.51922 0.54717 -0.00003,0.030303,0.006512,0.00536
2-0013,pubchemPCH,ANNCXEBNMQCHCO-UHFFFAOYSA-N,c1c(Cl)cc2c(c1)ccc1c2c(Cl)ccc1Cl,C14H7Cl3,xtb2,281.569,7,14,3,-47.219383966355,-47.044828119397,0.000187304331,-47.100672905799,5.91128001481,5.793376848972,0.001022632899,5.488478849641,0.159738082047,-10.581,-7.7808,2.800176400078,1.587,184.41463,0.294 0.548 0.056,0.02122047,0.007539508,0.005661868
2-0013,pubchemPCH,ANNCXEBNMQCHCO-UHFFFAOYSA-N,c1c(Cl)cc2c(c1)ccc1c2c(Cl)ccc1Cl,C14H7Cl3,r2scan,281.569,7,14,3,-1918.138545218861,-1917.9599210512,0.0001820752,-1918.0142067644,4.664638331955,4.5426656956,0.001099066,4.2149790461,0.1642875547,-5.7848,-2.4918,3.293,1.55991,211.58326,0.28086 0.54463 0.03357,0.020814,0.007431,0.005583
2-0013,pubchemPCH,ANNCXEBNMQCHCO-UHFFFAOYSA-N,c1c(Cl)cc2c(c1)ccc1c2c(Cl)ccc1Cl,C14H7Cl3,d4tzvp,281.569,7,14,3,-1918.821744702978,-1918.6431205353,0.0001820752,-1918.6974062485,4.610268133896,4.4882954975,0.001099066,4.1606088487,0.1642875547,-8.4548,-0.015,8.4398,1.61894,205.26883,0.32990 0.54361 0.03643,0.020814,0.007431,0.005583
2-0014,pubchemPCH,AOKBHDTXDNTSAV-UHFFFAOYSA-N,Clc1ccc2c(c1)c1ccccc1c1c2c2ccccc2cc1,C22H13Cl,xtb2,312.799,13,22,1,-58.309769877675,-58.022279996546,0.000206318258,-58.083793785208,9.259448641516,9.056937782067,0.001561187304,8.591469786338,0.269653085529,-10.1103,-7.4909,2.619392426746,2.321,239.834762,0.566 0.716 0.031,0.01052606,0.006885577,0.004287837
2-0014,pubchemPCH,AOKBHDTXDNTSAV-UHFFFAOYSA-N,Clc1ccc2c(c1)c1ccccc1c1c2c2ccccc2cc1,C22H13Cl,r2scan,312.799,13,22,1,-1306.20008057162,-1305.9058843597,0.0001994129,-1305.9653393145,7.312801449366,7.1035825345,0.0016761619,6.603834728,0.2769901659,-5.3724,-2.3435,3.0289,2.18681,291.34353,0.53546 0.67175 0.04710,0.010485,0.006766,0.00422
2-0014,pubchemPCH,AOKBHDTXDNTSAV-UHFFFAOYSA-N,Clc1ccc2c(c1)c1ccccc1c1c2c2ccccc2cc1,C22H13Cl,d4tzvp,312.799,13,22,1,-1307.13215336976,-1306.8379571579,0.0001994129,-1306.8974121127,7.212622953534,7.0034040385,0.0016761619,6.5036562333,0.2769901659,-7.908,0.0697,7.9777,2.21471,280.68699,0.54364 0.67949 0.04411,0.010485,0.006766,0.00422
2-0015,pubchemPCH,APQDEFISQYCMIA-UHFFFAOYSA-N,c1ccc2c(c1Cl)c1ccccc1c(c2Cl)Cl,C14H7Cl3,xtb2,281.569,7,14,3,-47.215592100811,-47.040930648184,0.000186873212,-47.096646896274,5.907488149266,5.789479377759,0.001023064018,5.484452840116,0.159841803757,-10.5724,-7.8032,2.769199150709,1.442,184.571295,0.169 -0.516 0.166,0.01551897,0.01123643,0.006624436
2-0015,pubchemPCH,APQDEFISQYCMIA-UHFFFAOYSA-N,c1ccc2c(c1Cl)c1ccccc1c(c2Cl)Cl,C14H7Cl3,r2scan,281.569,7,14,3,-1918.132320395583,-1917.9535026376,0.0001809119,-1918.0074415185,4.658413508677,4.536247282,0.0011002293,4.2082138002,0.1645472498,-5.8204,-2.5157,3.3047,1.34618,207.5025,0.17921 -0.45441 0.20467,0.015296,0.011081,0.006555
2-0015,pubchemPCH,APQDEFISQYCMIA-UHFFFAOYSA-N,c1ccc2c(c1Cl)c1ccccc1c(c2Cl)Cl,C14H7Cl3,d4tzvp,281.569,7,14,3,-1918.81760612263,-1918.6387883646,0.0001809119,-1918.6927272455,4.606129553548,4.4839633268,0.0011002293,4.1559298457,0.1645472498,-8.5102,-0.0508,8.4594,1.38601,202.15842,0.20717 -0.45933 0.20842,0.015296,0.011081,0.006555
2-0016,pubchemPCH,ASXWVVWHRAVIAQ-UHFFFAOYSA-N,c1c2c(cc3c(c2)cccc3)c2c(c1)c1ccc(cc1cc2)Cl,C22H13Cl,xtb2,312.799,13,22,1,-58.311643317022,-58.02462311634,0.000207625144,-58.086526553129,9.261322080863,9.059280901861,0.001559880418,8.594202554259,0.268992802727,-9.9698,-7.7926,2.177214260391,2.516,239.872634,0.978 -0.153 0.000,0.03295626,0.003230862,0.002942404
2-0016,pubchemPCH,ASXWVVWHRAVIAQ-UHFFFAOYSA-N,c1c2c(cc3c(c2)cccc3)c2c(c1)c1ccc(cc1cc2)Cl,C22H13Cl,r2scan,312.799,13,22,1,-1306.204778386063,-1305.9116057967,0.0002016677,-1305.971733035,7.317499263809,7.1093039715,0.0016739071,6.6102284485,0.2756638076,-5.1708,-2.6618,2.509,2.30213,318.51102,0.89365 -0.14732 -0.00000,0.032605,0.003206,0.002919
2-0016,pubchemPCH,ASXWVVWHRAVIAQ-UHFFFAOYSA-N,c1c2c(cc3c(c2)cccc3)c2c(c1)c1ccc(cc1cc2)Cl,C22H13Cl,d4tzvp,312.799,13,22,1,-1307.133230850718,-1306.8400582613,0.0002016677,-1306.9001854996,7.213700434492,7.0055051419,0.0016739071,6.5064296202,0.2756638076,-7.641,-0.2952,7.3458,2.31917,303.27745,0.90036 -0.14784 0.00001,0.032605,0.003206,0.002919
2-0017,pubchemPCH,ATSVDSLDDKNBLE-UHFFFAOYSA-N,c1ccc2-c3c(-c2c1Cl)c(Cl)ccc3,C12H6Cl2,xtb2,221.086,6,12,2,-37.797770716323,-37.650851190091,0.000164857918,-37.700003578418,4.952267406405,4.852558447773,0.00083889261,4.602442615618,0.134862812722,-10.4571,-7.8025,2.654583050535,3.073,146.344555,-0.000 -1.209 0.000,0.02569404,0.01680684,0.01016063
2-0017,pubchemPCH,ATSVDSLDDKNBLE-UHFFFAOYSA-N,c1ccc2-c3c(-c2c1Cl)c(Cl)ccc3,C12H6Cl2,r2scan,221.086,6,12,2,-1381.078671264351,-1380.929100341,0.0001615092,-1380.9772543213,3.880461526119,3.7781002122,0.000902004,3.5091676407,0.137746742,-5.5816,-2.6228,2.9588,3.14263,167.2714,-0.00018 -1.23638 0.00015,0.025535,0.016583,0.010054
2-0017,pubchemPCH,ATSVDSLDDKNBLE-UHFFFAOYSA-N,c1ccc2-c3c(-c2c1Cl)c(Cl)ccc3,C12H6Cl2,d4tzvp,221.086,6,12,2,-1381.640446071577,-1381.4908751482,0.0001615092,-1381.5390291285,3.831926434981,3.729565121,0.000902004,3.4606325501,0.137746742,-8.3292,0.0552,8.3844,3.18697,163.08356,-0.00018 -1.25382 0.00015,0.025535,0.016583,0.010054
2-0018,pubchemPCH,AULMCNDOHMTPGC-UHFFFAOYSA-N,Clc1ccc2c(c1)c(Cl)c(c(c2)Cl)Cl,C10H4Cl4,xtb2,265.954,4,10,4,-41.673088185369,-41.555069529744,0.000178298849,-41.608229331651,4.236092876131,4.160563731346,0.000752854215,3.936100246849,0.10465455614,-10.9194,-8.1389,2.780515544283,2.327,157.186162,0.428 0.809 0.000,0.02697481,0.008580078,0.006509541
2-0018,pubchemPCH,AULMCNDOHMTPGC-UHFFFAOYSA-N,Clc1ccc2c(c1)c(Cl)c(c(c2)Cl)Cl,C10H4Cl4,r2scan,265.954,4,10,4,-2224.111702599977,-2223.991025297,0.0001731438,-2224.0426481305,3.344481830745,3.2662931762,0.0008107806,3.0245588463,0.1077591753,-6.0853,-2.7526,3.3327,2.19339,175.53071,0.36616 0.78139 0.00003,0.026432,0.008503,0.006433
2-0018,pubchemPCH,AULMCNDOHMTPGC-UHFFFAOYSA-N,Clc1ccc2c(c1)c(Cl)c(c(c2)Cl)Cl,C10H4Cl4,d4tzvp,265.954,4,10,4,-2224.671384237222,-2224.5507069342,0.0001731438,-2224.6023297677,3.313934591712,3.2357459372,0.0008107806,2.9940116077,0.1077591753,-8.8587,-0.223,8.6357,2.29361,169.831,0.39280 0.81237 0.00003,0.026432,0.008503,0.006433
2-0019,pubchemPCH,AVYFEHDCFBRPMC-UHFFFAOYSA-N,c1ccc2c(c1)c1cc(Cl)cc(c1cc2)Cl,C14H8Cl2,xtb2,247.124,8,14,2,-43.1750676294,-42.992268869002,0.000177500197,-43.04519055279,5.95600604888,5.829859969602,0.001015532637,5.527078913318,0.16922395213,-10.5306,-7.5725,2.958133744245,2.57,172.215284,-1.011 0.026 -0.000,0.02093339,0.010524,0.007003219
2-0019,pubchemPCH,AVYFEHDCFBRPMC-UHFFFAOYSA-N,c1ccc2c(c1)c1cc(Cl)cc(c1cc2)Cl,C14H8Cl2,r2scan,247.124,8,14,2,-1458.568574951175,-1458.3817231773,0.0001731302,-1458.433341955,4.711389667037,4.5811894245,0.0010910992,4.2558781052,0.173679928,-5.7682,-2.2978,3.4704,2.41289,196.72056,-0.94860 0.03598 -0.00001,0.020678,0.01042,0.006929
2-0019,pubchemPCH,AVYFEHDCFBRPMC-UHFFFAOYSA-N,c1ccc2c(c1)c1cc(Cl)cc(c1cc2)Cl,C14H8Cl2,d4tzvp,247.124,8,14,2,-1459.216407602218,-1459.0295558283,0.0001731302,-1459.081174606,4.652206995376,4.5220067527,0.0010910992,4.1966954342,0.173679928,-8.4403,0.209,8.6493,2.4013,191.77186,-0.94397 0.03765 -0.00001,0.020678,0.01042,0.006929