id,subset,key,smiles,formula,level,mwt,nH,nC,nCl,E,H,S,G,dE,dH,dS,dG,zpe,homo,lumo,gap,Mu,alpha,tMu,rotA,rotB,rotC
2-0344,pubchemPCH,SGUDFHYGRVFRTA-UHFFFAOYSA-N,c1ccc(c2c1cc1c(c2)cccc1Cl)Cl,C14H8Cl2,xtb2,247.124,8,14,2,-43.169919592861,-42.98739673207,0.000174467932,-43.039414345878,5.950858012341,5.82498783267,0.001018564902,5.521302706406,0.169006027217,-10.2075,-8.0574,2.150079700002,0.0,172.105484,-0.000 0.000 0.000,0.02819613,0.009092972,0.006875645
2-0344,pubchemPCH,SGUDFHYGRVFRTA-UHFFFAOYSA-N,c1ccc(c2c1cc1c(c2)cccc1Cl)Cl,C14H8Cl2,r2scan,247.124,8,14,2,-1458.561902907538,-1458.3752226076,0.0001699534,-1458.4258942035,4.7047176234,4.5746888548,0.001094276,4.2484303537,0.1736089555,-5.3482,-2.9015,2.4467,8E-05,201.25004,-0.00001 -0.00003 -0.00000,0.027916,0.008966,0.006786
2-0344,pubchemPCH,SGUDFHYGRVFRTA-UHFFFAOYSA-N,c1ccc(c2c1cc1c(c2)cccc1Cl)Cl,C14H8Cl2,d4tzvp,247.124,8,14,2,-1459.206236812925,-1459.019556513,0.0001699534,-1459.0702281089,4.642036206083,4.5120074374,0.001094276,4.1857489371,0.1736089555,-7.8985,-0.4958,7.4027,2E-05,197.03006,-0.00001 0.00001 -0.00000,0.027916,0.008966,0.006786
2-0345,pubchemPCH,SKGXUFZRYNGFJS-UHFFFAOYSA-N,c1c(Cl)c(Cl)cc2c1cccc2,C10H6Cl2,xtb2,197.064,6,10,2,-33.57589133541,-33.441369026384,0.000153982209,-33.487278822038,4.316980768222,4.224947970036,0.000743362063,4.003314570608,0.123821064817,-10.7278,-7.6449,3.08281446208,3.037,132.330834,1.195 0.000 0.000,0.05128326,0.01538135,0.01183245
2-0345,pubchemPCH,SKGXUFZRYNGFJS-UHFFFAOYSA-N,c1c(Cl)c(Cl)cc2c1cccc2,C10H6Cl2,r2scan,197.064,6,10,2,-1304.953793595926,-1304.8162593129,0.0001506203,-1304.8611667582,3.42001603223,3.3249703977,0.0007994805,3.086605211,0.1271886688,-5.906,-2.353,3.553,2.85838,144.15103,1.12455 0.00002 0.00003,0.04982,0.015299,0.011705
2-0345,pubchemPCH,SKGXUFZRYNGFJS-UHFFFAOYSA-N,c1c(Cl)c(Cl)cc2c1cccc2,C10H6Cl2,d4tzvp,197.064,6,10,2,-1305.441760835552,-1305.3042265526,0.0001506203,-1305.3491339979,3.378863114522,3.28381748,0.0007994805,3.0454522939,0.1271886688,-8.6751,0.2271,8.9022,2.9689,141.58214,1.16803 0.00002 0.00003,0.04982,0.015299,0.011705
2-0346,pubchemPCH,SNJYJKQESOYOMU-UHFFFAOYSA-N,Clc1c(Cl)c(Cl)c2c(c1Cl)cc1c(c2Cl)c(Cl)ccc1,C14H4Cl6,xtb2,384.904,4,14,6,-59.342006471824,-59.19272394053,0.000217644687,-59.257614703884,5.766775407204,5.67414555703,0.001043005731,5.363173397668,0.130445489663,-10.5383,-8.7276,1.810647382547,3.465,222.303761,-1.017 -0.907 -0.009,0.01142052,0.005006739,0.003515735
2-0346,pubchemPCH,SNJYJKQESOYOMU-UHFFFAOYSA-N,Clc1c(Cl)c(Cl)c2c(c1Cl)cc1c(c2Cl)c(Cl)ccc1,C14H4Cl6,r2scan,384.904,4,14,6,-3296.838825962277,-3296.6860715546,0.0002094229,-3296.7485110063,4.514754267067,4.4186513906,0.0011224537,4.0839916825,0.1346330127,-5.5808,-3.4905,2.0903,3.32308,266.3136,-0.86694 -0.97811 -0.03066,0.011231,0.004953,0.003516
2-0346,pubchemPCH,SNJYJKQESOYOMU-UHFFFAOYSA-N,Clc1c(Cl)c(Cl)c2c(c1Cl)cc1c(c2Cl)c(Cl)ccc1,C14H4Cl6,d4tzvp,384.904,4,14,6,-3297.627988627686,-3297.47523422,0.0002094229,-3297.5376736717,4.474684171884,4.3785812956,0.0011224537,4.0439215879,0.1346330127,-8.141,-1.1796,6.9614,3.57081,255.28659,-0.92512 -1.05687 -0.02714,0.011231,0.004953,0.003516
2-0347,pubchemPCH,SPDUKOYWEVXXEU-UHFFFAOYSA-N,c1cc(Cl)cc2c1ccc1c2cc(cc1)Cl,C14H8Cl2,xtb2,247.124,8,14,2,-43.177416896446,-42.994673391826,0.000175483217,-43.046993712833,5.958355315926,5.832264492426,0.001017549617,5.528882073361,0.169199166058,-10.5128,-7.5675,2.945342108021,3.044,172.093501,0.000 -1.198 -0.000,0.0223201,0.008946315,0.00638649
2-0347,pubchemPCH,SPDUKOYWEVXXEU-UHFFFAOYSA-N,c1cc(Cl)cc2c1ccc1c2cc(cc1)Cl,C14H8Cl2,r2scan,247.124,8,14,2,-1458.570838871169,-1458.3841739962,0.0001711398,-1458.4351993296,4.713653587031,4.5836402434,0.0010930896,4.2577354798,0.1735064132,-5.734,-2.2464,3.4876,2.9875,198.59598,0.00010 -1.17535 -0.00009,0.02204,0.008874,0.006327
2-0347,pubchemPCH,SPDUKOYWEVXXEU-UHFFFAOYSA-N,c1cc(Cl)cc2c1ccc1c2cc(cc1)Cl,C14H8Cl2,d4tzvp,247.124,8,14,2,-1459.218000420537,-1459.0313355454998,0.0001711398,-1459.0823608789,4.653799813695,4.5237864699,0.0010930896,4.1978817071,0.1735064132,-8.4087,0.2633,8.672,3.06494,192.97471,0.00010 -1.20581 -0.00009,0.02204,0.008874,0.006327
2-0348,pubchemPCH,SPGPNZMKIJWSKW-UHFFFAOYSA-N,c1cc2ccc3c4c2c(c1)cc(c4c(c1c3cccc1)Cl)Cl,C20H10Cl2,xtb2,321.206,10,20,2,-57.067340545226,-56.823404337311,0.00020143533,-56.883462280926,8.301535208644,8.133135908889,0.001393692322,7.717606542042,0.226751749405,-9.974,-8.0808,1.893266500812,3.21,229.631199,0.253 1.237 0.019,0.01193334,0.007872935,0.004777195
2-0348,pubchemPCH,SPGPNZMKIJWSKW-UHFFFAOYSA-N,c1cc2ccc3c4c2c(c1)cc(c4c(c1c3cccc1)Cl)Cl,C20H10Cl2,r2scan,321.206,10,20,2,-1688.380805304282,-1688.1316956016,0.0001957089,-1688.1900461975,6.535780125166,6.3622057976,0.0014960615,5.9161549117,0.2324312731,-5.1605,-2.918,2.2425,3.05576,288.34088,0.25960 1.17377 0.01258,0.011751,0.007783,0.004766
2-0348,pubchemPCH,SPGPNZMKIJWSKW-UHFFFAOYSA-N,c1cc2ccc3c4c2c(c1)cc(c4c(c1c3cccc1)Cl)Cl,C20H10Cl2,d4tzvp,321.206,10,20,2,-1689.25840280336,-1689.0092931007,0.0001957089,-1689.0676436965998,6.44727739514,6.2737030675,0.0014960615,5.8276521826,0.2324312731,-7.5417,-0.6814,6.8603,3.16926,279.32718,0.30628 1.20862 0.00855,0.011751,0.007783,0.004766
2-0349,pubchemPCH,SPNXNIHLIKOOFV-UHFFFAOYSA-N,c1c(Cl)c(Cl)c2c(c1)c1ccc3c(c1cc2)cccc3,C18H10Cl2,xtb2,297.184,10,18,2,-52.767916339178,-52.536900038955,0.000197960239,-52.59592188416,7.588703745326,7.428503296503,0.001290761157,7.043662856646,0.21451475814,-10.3484,-7.7047,2.643701559437,3.477,212.269311,-1.275 -0.497 0.000,0.02907819,0.004748275,0.004081752
2-0349,pubchemPCH,SPNXNIHLIKOOFV-UHFFFAOYSA-N,c1c(Cl)c(Cl)c2c(c1)c1ccc3c(c1cc2)cccc3,C18H10Cl2,r2scan,297.184,10,18,2,-1612.175611738993,-1611.9396392905,0.0001923218,-1611.9969800245,5.995018734413,5.8298607001,0.0013860362,5.4166138721,0.219962498,-5.5967,-2.4483,3.1484,3.16788,258.01151,-1.16156 -0.45174 0.00002,0.028655,0.004706,0.004042
2-0349,pubchemPCH,SPNXNIHLIKOOFV-UHFFFAOYSA-N,c1c(Cl)c(Cl)c2c(c1)c1ccc3c(c1cc2)cccc3,C18H10Cl2,d4tzvp,297.184,10,18,2,-1612.983733226086,-1612.7477607776,0.0001923218,-1612.8051015116,5.918229733432,5.753071699,0.0013860362,5.339824872,0.219962498,-8.1753,-0.0007,8.1746,3.18938,248.82883,-1.16373 -0.46924 0.00002,0.028655,0.004706,0.004042
2-0350,pubchemPCH,SRIHSAFSOOUEGL-UHFFFAOYSA-N,c1ccc2c(c1)cc1c(c2)cccc1Cl,C14H9Cl,xtb2,212.679,9,14,1,-39.117478063669,-38.926827846063,0.00016606944,-38.976341449567,5.987458854174,5.853461317688,0.001010058998,5.552312226781,0.178437414582,-10.0352,-7.8245,2.210684943511,1.857,159.936229,-0.338 -0.648 -0.000,0.03720279,0.01247047,0.009339756
2-0350,pubchemPCH,SRIHSAFSOOUEGL-UHFFFAOYSA-N,c1ccc2c(c1)cc1c(c2)cccc1Cl,C14H9Cl,r2scan,212.679,9,14,1,-998.979777431096,-998.7847980648,0.0001620265,-998.8331062714,4.739313749726,4.6009859148,0.0010852911,4.2774062901,0.1831740933,-5.2052,-2.6995,2.5057,1.74819,187.00163,-0.31261 -0.61263 -0.00003,0.036739,0.012339,0.009237
2-0350,pubchemPCH,SRIHSAFSOOUEGL-UHFFFAOYSA-N,c1ccc2c(c1)cc1c(c2)cccc1Cl,C14H9Cl,d4tzvp,212.679,9,14,1,-999.588856011538,-999.3938766452,0.0001620265,-999.4421848518,4.671931366936,4.5336035318,0.0010852911,4.210023908,0.1831740933,-7.7542,-0.282,7.4722,1.75724,184.00093,-0.29291 -0.62622 -0.00004,0.036739,0.012339,0.009237
2-0351,pubchemPCH,SSIYOQLXZUXGJR-UHFFFAOYSA-N,c1ccc2c(c1)cc(c1c2ccc2c1cccc2)Cl,C18H11Cl,xtb2,262.739,11,18,1,-48.711498170311,-48.472345669138,0.000186361537,-48.527909361487,7.621327947484,7.452991297711,0.001285455463,7.069732750659,0.224110956721,-10.1887,-7.551,2.637720801668,1.819,199.9158,0.269 0.643 0.164,0.02276389,0.008724389,0.00642721
2-0351,pubchemPCH,SSIYOQLXZUXGJR-UHFFFAOYSA-N,c1ccc2c(c1)cc(c1c2ccc2c1cccc2)Cl,C18H11Cl,r2scan,262.739,11,18,1,-1152.585226510201,-1152.3405807364,0.0001808189,-1152.3944918902,6.021355108389,5.8475237488,0.0013806273,5.4358896063,0.23010831,-5.4319,-2.3626,3.0693,1.69524,238.45579,0.25267 0.58779 0.18837,0.02228,0.008644,0.006341
2-0351,pubchemPCH,SSIYOQLXZUXGJR-UHFFFAOYSA-N,c1ccc2c(c1)cc(c1c2ccc2c1cccc2)Cl,C18H11Cl,d4tzvp,262.739,11,18,1,-1153.357185674379,-1153.1125399005998,0.0001808189,-1153.1664510544,5.938958143965,5.7651267842,0.0013806273,5.3534926428,0.23010831,-8.0138,0.0905,8.1043,1.73862,231.80835,0.29537 0.58837 0.18560,0.02228,0.008644,0.006341
2-0352,pubchemPCH,SWRNUKWDDYPZGV-UHFFFAOYSA-N,c1c(Cl)cc2c(c1Cl)c(Cl)c(c(c2Cl)Cl)Cl,C10H2Cl6,xtb2,334.844,2,10,6,-49.75823248988,-49.656826421855,0.0001988807,-49.716122702546,4.143152438592,4.084235881407,0.000766081156,3.855828784372,0.085367031311,-11.0023,-8.5207,2.481554558053,0.909,182.438368,0.345 0.094 0.000,0.01195932,0.007958006,0.00477837
2-0352,pubchemPCH,SWRNUKWDDYPZGV-UHFFFAOYSA-N,c1c(Cl)cc2c(c1Cl)c(Cl)c(c(c2Cl)Cl)Cl,C10H2Cl6,r2scan,334.844,2,10,6,-3143.249811279856,-3143.1460546615,0.0001925771,-3143.2034715133,3.249147305088,3.1878793351,0.0008251709,2.9418544921,0.0882912486,-6.1201,-3.0896,3.0305,0.75286,204.84782,0.26963 0.12258 0.00081,0.011771,0.007826,0.004739
2-0352,pubchemPCH,SWRNUKWDDYPZGV-UHFFFAOYSA-N,c1c(Cl)cc2c(c1Cl)c(Cl)c(c(c2Cl)Cl)Cl,C10H2Cl6,d4tzvp,334.844,2,10,6,-3143.88238219019,-3143.7786255718,0.0001925771,-3143.8360424236,3.2303806202,3.1691126504,0.0008251709,2.9230878076,0.0882912486,-8.8709,-0.6327,8.2382,0.88012,196.72743,0.31233 0.14946 0.00228,0.011771,0.007826,0.004739
2-0353,pubchemPCH,SYIKZCHFCYYAQN-UHFFFAOYSA-N,c1c(Cl)c(Cl)cc2c1ccc1c2cccc1,C14H8Cl2,xtb2,247.124,8,14,2,-43.173574363296,-42.990834582741,0.000177263752,-43.043685770474,5.954512782776,5.828425683341,0.001015769082,5.525574131002,0.169171488075,-10.5757,-7.56,3.015765473006,3.323,172.302036,-1.254 0.368 0.000,0.0329054,0.008353402,0.006662143
2-0353,pubchemPCH,SYIKZCHFCYYAQN-UHFFFAOYSA-N,c1c(Cl)c(Cl)cc2c1ccc1c2cccc1,C14H8Cl2,r2scan,247.124,8,14,2,-1458.566480263914,-1458.3797833835,0.0001726801,-1458.4312679502,4.709294979776,4.5792496307,0.0010915493,4.2538041004,0.1735370541,-5.8074,-2.2699,3.5375,3.04651,198.81943,-1.14891 0.34142 0.00004,0.032275,0.008299,0.006602
2-0353,pubchemPCH,SYIKZCHFCYYAQN-UHFFFAOYSA-N,c1c(Cl)c(Cl)cc2c1ccc1c2cccc1,C14H8Cl2,d4tzvp,247.124,8,14,2,-1459.214722176364,-1459.028025296,0.0001726801,-1459.0795098627,4.650521569522,4.5204762204,0.0010915493,4.1950306909,0.1735370541,-8.4852,0.2597,8.7449,3.14657,193.22874,-1.18331 0.36368 0.00004,0.032275,0.008299,0.006602
2-0354,pubchemPCH,SYPUDDDSNGBDNA-UHFFFAOYSA-N,Clc1c(Cl)cc2c(c1)cc1c(c2Cl)cccc1,C14H7Cl3,xtb2,281.569,7,14,3,-47.21709642837,-47.042862800427,0.000187839653,-47.098867193051,5.908992476825,5.791411530002,0.001022097577,5.486673136893,0.159319326546,-10.343,-8.2751,2.067933096835,3.565,184.619676,-1.258 -0.621 0.000,0.0244476,0.006737324,0.005281764
2-0354,pubchemPCH,SYPUDDDSNGBDNA-UHFFFAOYSA-N,Clc1c(Cl)cc2c(c1)cc1c(c2Cl)cccc1,C14H7Cl3,r2scan,281.569,7,14,3,-1918.138364522198,-1917.9602678815,0.0001824318,-1918.014659929,4.664457635292,4.5430125259,0.0010987094,4.2154322107,0.1636606591,-5.4386,-3.0695,2.3691,3.34505,224.14809,-1.17232 -0.59797 0.00005,0.023827,0.0067,0.005229
2-0354,pubchemPCH,SYPUDDDSNGBDNA-UHFFFAOYSA-N,Clc1c(Cl)cc2c(c1)cc1c(c2Cl)cccc1,C14H7Cl3,d4tzvp,281.569,7,14,3,-1918.81869047075,-1918.64059383,0.0001824318,-1918.6949858775,4.607213901668,4.4857687922,0.0010987094,4.1581884777,0.1636606591,-7.9925,-0.6959,7.2966,3.50387,216.68515,-1.23099 -0.62042 0.00003,0.023827,0.0067,0.005229
2-0355,pubchemPCH,SYSDJPXXARLEDX-UHFFFAOYSA-N,c1c(Cl)c2c(Cl)cc3c4c2c2c1cc(Cl)c1c2c4c(c(c1)Cl)cc3Cl,C20H5Cl5,xtb2,422.525,5,20,5,-68.166602930056,-67.969696139343,0.000223739584,-68.036404096405,7.920636008271,7.794545068958,0.001339225206,7.395255072765,0.176946022824,-10.9332,-8.4703,2.462970278493,1.055,261.168974,0.201 -0.361 0.034,0.006511057,0.004757875,0.002834747
2-0355,pubchemPCH,SYSDJPXXARLEDX-UHFFFAOYSA-N,c1c(Cl)c2c(Cl)cc3c4c2c2c1cc(Cl)c1c2c4c(c(c1)Cl)cc3Cl,C20H5Cl5,r2scan,422.525,5,20,5,-3065.885167894329,-3065.6833858706,0.0002153077,-3065.7475798647,6.184521278279,6.0535536686,0.0014398943,5.6242490092,0.1826253794,-6.1906,-3.267,2.9236,1.10728,316.25144,0.23617 -0.34195 -0.13063,0.006443,0.004713,0.002809
2-0355,pubchemPCH,SYSDJPXXARLEDX-UHFFFAOYSA-N,c1c(Cl)c2c(Cl)cc3c4c2c2c1cc(Cl)c1c2c4c(c(c1)Cl)cc3Cl,C20H5Cl5,d4tzvp,422.525,5,20,5,-3066.856583885386,-3066.6548018617,0.0002153077,-3066.7189958558,6.113689645126,5.9827220357,0.0014398943,5.5534173768,0.1826253794,-8.9357,-0.9288,8.0069,1.23262,300.64752,0.29411 -0.37760 -0.07802,0.006443,0.004713,0.002809
2-0356,pubchemPCH,SYZOJWBIQAUMCL-UHFFFAOYSA-N,c1c(Cl)c(Cl)cc2c1ccc1c2cc(c(c1)Cl)Cl,C14H6Cl4,xtb2,316.014,6,14,4,-51.273533250463,-51.10732827571,0.000196241255,-51.165837605828,5.876386927893,5.76683463426,0.001030600371,5.459561132984,0.149973206771,-10.8696,-7.9732,2.89645086761,2.491,196.985955,0.000 0.980 -0.000,0.0216689,0.004442779,0.003686861
2-0356,pubchemPCH,SYZOJWBIQAUMCL-UHFFFAOYSA-N,c1c(Cl)c(Cl)cc2c1ccc1c2cc(c(c1)Cl)Cl,C14H6Cl4,r2scan,316.014,6,14,4,-2377.726484627407,-2377.556841825,0.0001909837,-2377.6137836119,4.635856137733,4.5228648666,0.0011070693,4.1927920251,0.1538566075,-6.0423,-2.5841,3.4582,2.40666,235.65038,0.00001 0.94683 -0.00001,0.021254,0.004417,0.003657
2-0356,pubchemPCH,SYZOJWBIQAUMCL-UHFFFAOYSA-N,c1c(Cl)c(Cl)cc2c1ccc1c2cc(c(c1)Cl)Cl,C14H6Cl4,d4tzvp,316.014,6,14,4,-2378.445543906403,-2378.275901104,0.0001909837,-2378.3328428909,4.586791375081,4.473800104,0.0011070693,4.1437272631,0.1538566075,-8.7294,-0.085,8.6444,2.5316,225.31305,0.00001 0.99599 -0.00001,0.021254,0.004417,0.003657
2-0357,pubchemPCH,SZOYSRZXSQIJGS-UHFFFAOYSA-N,c1ccc2c(c1)c(Cl)c1c(c2)c(Cl)c(cc1)Cl,C14H7Cl3,xtb2,281.569,7,14,3,-47.21686243361,-47.042535295582,0.000187904772,-47.098559103415,5.908758482065,5.791084025157,0.001022032458,5.486365047257,0.15942346787,-10.3152,-8.2616,2.053572494227,2.272,184.595273,-0.892 0.055 -0.000,0.0215413,0.007675949,0.005659325
2-0357,pubchemPCH,SZOYSRZXSQIJGS-UHFFFAOYSA-N,c1ccc2c(c1)c(Cl)c1c(c2)c(Cl)c(cc1)Cl,C14H7Cl3,r2scan,281.569,7,14,3,-1918.137954321232,-1917.9596393174,0.000182216,-1918.0139670052,4.664047434326,4.5423839618,0.0010989252,4.2147392869,0.1638905915,-5.4437,-3.0529,2.3908,2.07247,218.77551,-0.81390 0.04867 -0.00009,0.021166,0.007604,0.005594
2-0357,pubchemPCH,SZOYSRZXSQIJGS-UHFFFAOYSA-N,c1ccc2c(c1)c(Cl)c1c(c2)c(Cl)c(cc1)Cl,C14H7Cl3,d4tzvp,281.569,7,14,3,-1918.819196008856,-1918.6408810051,0.000182216,-1918.6952086929,4.607719439774,4.4860559673,0.0010989252,4.1584112931,0.1638905915,-7.9961,-0.6833,7.3128,2.10176,212.7698,-0.82554 0.04705 -0.00009,0.021166,0.007604,0.005594
2-0358,pubchemPCH,SZPDSSCEOCVFMN-UHFFFAOYSA-N,c1c2c(cc3c1c(Cl)c(c(c3Cl)Cl)Cl)cc1c(c2)cccc1,C18H8Cl4,xtb2,366.074,8,18,4,-60.848714790894,-60.635027672203,0.000216787715,-60.699662929562,7.491417454992,7.348546187701,0.001305742473,6.959239068676,0.194502321762,-10.144,-8.5942,1.549756082376,4.44,237.323514,-1.747 0.000 -0.000,0.01471723,0.003525616,0.002844254
2-0358,pubchemPCH,SZPDSSCEOCVFMN-UHFFFAOYSA-N,c1c2c(cc3c1c(Cl)c(c(c3Cl)Cl)Cl)cc1c(c2)cccc1,C18H8Cl4,r2scan,366.074,8,18,4,-2531.313126750514,-2531.0947673085,0.0002088408,-2531.1570331808,5.899090540398,5.7515455125,0.0014033408,5.3331392914,0.1997981272,-5.144,-3.4056,1.7384,3.81367,315.83725,-1.50038 0.00002 -0.00009,0.014467,0.003506,0.002822
2-0358,pubchemPCH,SZPDSSCEOCVFMN-UHFFFAOYSA-N,c1c2c(cc3c1c(Cl)c(c(c3Cl)Cl)Cl)cc1c(c2)cccc1,C18H8Cl4,d4tzvp,366.074,8,18,4,-2532.186861462783,-2531.9685020208003,0.0002088408,-2532.0307678931003,5.826806045649,5.6792610178,0.0014033408,5.2608547975,0.1997981272,-7.5469,-1.1596,6.3873,3.89259,301.00008,-1.53143 -0.00001 -0.00012,0.014467,0.003506,0.002822
2-0359,pubchemPCH,TXBUSOGHGQIIMH-UHFFFAOYSA-N,c1ccc2c(c1)c1cccc(c1c(c2Cl)Cl)Cl,C14H7Cl3,xtb2,281.569,7,14,3,-47.214415236778,-47.039823528034,0.000188172048,-47.095927024028,5.906311285233,5.788372257609,0.001021765182,5.48373296787,0.159666143131,-10.4616,-7.7913,2.67035445742,4.04,184.690713,-0.629 -1.460 -0.000,0.01714976,0.0108254,0.006636352
2-0359,pubchemPCH,TXBUSOGHGQIIMH-UHFFFAOYSA-N,c1ccc2c(c1)c1cccc(c1c(c2Cl)Cl)Cl,C14H7Cl3,r2scan,281.569,7,14,3,-1918.127593711088,-1917.9491442814,0.0001819442,-1918.0033909549,4.653686824182,4.5318889258,0.001099197,4.2041632366,0.1640482476,-5.754,-2.5067,3.2473,3.80718,208.71499,-0.62262 -1.36225 0.01071,0.016721,0.010682,0.006646
2-0359,pubchemPCH,TXBUSOGHGQIIMH-UHFFFAOYSA-N,c1ccc2c(c1)c1cccc(c1c(c2Cl)Cl)Cl,C14H7Cl3,d4tzvp,281.569,7,14,3,-1918.812897784563,-1918.6344483549,0.0001819442,-1918.6886950284,4.601421215481,4.4796233171,0.001099197,4.1518976286,0.1640482476,-8.4625,-0.0399,8.4226,3.92436,202.96168,-0.62980 -1.40958 0.01269,0.016721,0.010682,0.006646
2-0360,pubchemPCH,TYZMQXXCLGJANQ-UHFFFAOYSA-N,c1ccc2-c3c(-c2c1)c(Cl)c(c(c3Cl)Cl)Cl,C12H4Cl4,xtb2,289.976,4,12,4,-45.886740089489,-45.756434394521,0.00018762884,-45.812375933305,4.863152037521,4.780056910153,0.00084993048,4.526650137133,0.115474198448,-10.6913,-8.2263,2.464948841788,3.369,171.577329,-1.325 0.000 -0.000,0.0162445,0.009590059,0.006030129
2-0360,pubchemPCH,TYZMQXXCLGJANQ-UHFFFAOYSA-N,c1ccc2-c3c(-c2c1)c(Cl)c(c(c3Cl)Cl)Cl,C12H4Cl4,r2scan,289.976,4,12,4,-2300.229840291896,-2300.0972675118,0.0001823736,-2300.1516421998,3.798187348128,3.7128241774,0.0009149632,3.4400277822,0.1180203767,-5.6842,-2.8791,2.8051,2.96933,201.79756,-1.16820 0.00000 -0.00001,0.016071,0.009505,0.005973
2-0360,pubchemPCH,TYZMQXXCLGJANQ-UHFFFAOYSA-N,c1ccc2-c3c(-c2c1)c(Cl)c(c(c3Cl)Cl)Cl,C12H4Cl4,d4tzvp,289.976,4,12,4,-2300.86426874838,-2300.7316959683,0.0001823736,-2300.7860706563,3.761197187304,3.6758340167,0.0009149632,3.4030376219,0.1180203767,-8.417,-0.2604,8.1566,3.09711,193.45727,-1.21847 0.00001 -0.00001,0.016071,0.009505,0.005973
2-0361,pubchemPCH,UDAWGGVUOTXAFF-UHFFFAOYSA-N,c1c(Cl)c2ccc3c4c2c(c1)ccc4c(cc3Cl)Cl,C16H7Cl3,xtb2,305.591,7,16,3,-51.534335379341,-51.346617581726,0.000192223307,-51.403928960687,6.639638685066,6.513294625331,0.001124120179,6.178138193159,0.172112323811,-10.3187,-8.1627,2.156064296996,1.791,201.859785,0.381 0.593 0.000,0.0155486,0.006991678,0.004822958
2-0361,pubchemPCH,UDAWGGVUOTXAFF-UHFFFAOYSA-N,c1c(Cl)c2ccc3c4c2c(c1)ccc4c(cc3Cl)Cl,C16H7Cl3,r2scan,305.591,7,16,3,-1994.372279210226,-1994.1807460941,0.0001877893,-1994.236735476,5.233940148784,5.1037795249,0.0012067643,4.7439826243,0.1762357732,-5.4775,-2.8711,2.6064,1.71862,244.20372,0.35439 0.57583 0.00000,0.015401,0.006899,0.004765
2-0361,pubchemPCH,UDAWGGVUOTXAFF-UHFFFAOYSA-N,c1c(Cl)c2ccc3c4c2c(c1)ccc4c(cc3Cl)Cl,C16H7Cl3,d4tzvp,305.591,7,16,3,-1995.125607185274,-1994.9340740692,0.0001877893,-1994.9900634511,5.168508700626,5.0383480768,0.0012067643,4.6785511769,0.1762357732,-7.9272,-0.5966,7.3306,1.78751,236.62291,0.36247 0.60263 0.00002,0.015401,0.006899,0.004765
2-0362,pubchemPCH,UDTKDCROHCEBTC-UHFFFAOYSA-N,c1c(Cl)c(Cl)c2c(c1)c1ccccc1cc2,C14H8Cl2,xtb2,247.124,8,14,2,-43.172727158504,-42.989901760788,0.000177225975,-43.042741685359,5.953665577984,5.827492861388,0.001015806859,5.524630045887,0.169256320815,-10.5499,-7.5529,2.99697285727,3.243,172.298516,-1.220 -0.372 -0.000,0.03585291,0.008587427,0.006928036
2-0362,pubchemPCH,UDTKDCROHCEBTC-UHFFFAOYSA-N,c1c(Cl)c(Cl)c2c(c1)c1ccccc1cc2,C14H8Cl2,r2scan,247.124,8,14,2,-1458.565176206265,-1458.3783438011,0.0001723389,-1458.4297266399,4.707990922127,4.5778100483,0.0010918905,4.2522627901,0.1736781315,-5.8347,-2.2883,3.5464,3.01342,196.61597,-1.13384 -0.34629 -0.00001,0.035216,0.008509,0.006853
2-0362,pubchemPCH,UDTKDCROHCEBTC-UHFFFAOYSA-N,c1c(Cl)c(Cl)c2c(c1)c1ccccc1cc2,C14H8Cl2,d4tzvp,247.124,8,14,2,-1459.213975307808,-1459.0271429026,0.0001723389,-1459.0785257414,4.649774700966,4.519593827,0.0010918905,4.1940465696,0.1736781315,-8.5185,0.2332,8.7517,3.05076,191.67764,-1.14679 -0.35419 -0.00001,0.035216,0.008509,0.006853
2-0363,pubchemPCH,UGUZUUUNTAPFCG-UHFFFAOYSA-N,c1c(Cl)cc2c(c1)c1ccc3c(c1cc2)ccc(c3)Cl,C18H10Cl2,xtb2,297.184,10,18,2,-52.772620665737,-52.541652476072,0.000195919437,-52.600065856346,7.593408071885,7.43325573362,0.001292801959,7.047806828832,0.214479296619,-10.4586,-7.7565,2.70206413363,0.0,212.040648,0.000 0.000 0.000,0.04221852,0.003601347,0.003318289