id,subset,key,smiles,formula,level,mwt,nH,nC,nCl,E,H,S,G,dE,dH,dS,dG,zpe,homo,lumo,gap,Mu,alpha,tMu,rotA,rotB,rotC
3-0098,monoCl,BWVOPWQTGBEZAU-UHFFFAOYSA-N,c1ccc2-c3c(-c2c1)cc1c(c3Cl)c2c(cc1)ccc1c2cccc1,C24H13Cl,r2scan,336.821,13,24,1,-1382.316867203701,-1382.0112177616,0.0002077634,-1382.0731624251,7.765155906911,7.5492047228,0.0017812238,7.0181327052,0.2871762109,-5.2014,-2.4959,2.7055,1.35609,335.36902,-0.31829 -0.36644 0.22148,0.014773,0.004715,0.003769
3-0098,monoCl,BWVOPWQTGBEZAU-UHFFFAOYSA-N,c1ccc2-c3c(-c2c1)cc1c(c3Cl)c2c(cc1)ccc1c2cccc1,C24H13Cl,d4tzvp,336.821,13,24,1,-1383.319257981938,-1383.0136085398,0.0002077634,-1383.0755532033,7.654105650146,7.4381544658,0.0017812238,6.9070824495,0.2871762109,-7.7242,-0.0314,7.6928,1.47737,316.3318,-0.35691 -0.39903 0.22630,0.014773,0.004715,0.003769
3-0099,monoCl,BWWUEEBVMHRQCH-UHFFFAOYSA-N,c1ccc2c(c1)cc(c1c2cc2c(c1)c1ccccc1c1c2cccc1)Cl,C26H15Cl,xtb2,362.859,15,26,1,-67.911873496025,-67.577047100024,0.000223515034,-67.643688107283,10.901401246534,10.665717042493,0.00183967909,10.117216720371,0.314609841452,-10.1651,-7.532,2.633099047491,1.918,279.847933,-0.064 0.752 -0.001,0.009684498,0.004216333,0.002937456
3-0099,monoCl,BWWUEEBVMHRQCH-UHFFFAOYSA-N,c1ccc2c(c1)cc(c1c2cc2c(c1)c1ccccc1c1c2cccc1)Cl,C26H15Cl,r2scan,362.859,15,26,1,-1459.818631431137,-1459.4767559805,0.0002258142,-1459.5440824904,8.607944588441,8.3652093177,0.0019638892,7.7796756013,0.3209427951,-5.4305,-2.4737,2.9568,1.81302,355.81053,-0.07543 0.70928 -0.00050,0.009573,0.004185,0.002912
3-0099,monoCl,BWWUEEBVMHRQCH-UHFFFAOYSA-N,c1ccc2c(c1)cc(c1c2cc2c(c1)c1ccccc1c1c2cccc1)Cl,C26H15Cl,d4tzvp,362.859,15,26,1,-1460.912220023764,-1460.5703445732,0.0002258142,-1460.6376710831,8.491386721726,8.2486514508,0.0019638892,7.6631177359,0.3209427951,-7.9803,-0.0535,7.9268,1.79447,339.27601,-0.02162 0.70565 -0.00047,0.009573,0.004185,0.002912
3-0100,monoCl,BXLIFAQSFLKJKN-UHFFFAOYSA-N,c1ccc2c(c1)c1c3cc(Cl)ccc3ccc1c1c2cc2ccccc2c1,C26H15Cl,xtb2,362.859,15,26,1,-67.903356395563,-67.567979843955,0.000226164854,-67.63541089507,10.892884146072,10.656649786424,0.00183702927,10.108939508158,0.314654622218,-9.9853,-7.6864,2.298960872492,2.276,279.814325,-0.744 0.337 -0.367,0.01224965,0.0034455,0.002838749
3-0100,monoCl,BXLIFAQSFLKJKN-UHFFFAOYSA-N,c1ccc2c(c1)c1c3cc(Cl)ccc3ccc1c1c2cc2ccccc2c1,C26H15Cl,r2scan,362.859,15,26,1,-1459.807925972735,-1459.4648095149,0.0002182197,-1459.5298717127,8.597239130039,8.3532628521,0.0019714837,7.7654648236,0.3231223427,-5.2234,-2.593,2.6304,2.13317,363.07356,-0.68541 0.34269 -0.34219,0.012162,0.003408,0.002796
3-0100,monoCl,BXLIFAQSFLKJKN-UHFFFAOYSA-N,c1ccc2c(c1)c1c3cc(Cl)ccc3ccc1c1c2cc2ccccc2c1,C26H15Cl,d4tzvp,362.859,15,26,1,-1460.897587995289,-1460.5544715375,0.0002182197,-1460.6195337353,8.476754693251,8.2327784151,0.0019714837,7.6449803881,0.3231223427,-7.703,-0.2203,7.4827,2.16111,345.51417,-0.68675 0.35875 -0.35010,0.012162,0.003408,0.002796
3-0101,monoCl,BYCOLQXRHZTKFZ-UHFFFAOYSA-N,Clc1cc2cc3-c4ccc5c(c4-c4c3c(c2cc1)ccc4)cccc5,C24H13Cl,xtb2,336.821,13,24,1,-62.604659448283,-62.304662758839,0.000214306263,-62.368558171132,9.967745469394,9.75744885839,0.001659605555,9.262637460892,0.28101994021,-10.0897,-8.0099,2.079858392913,2.01,257.161114,-0.641 0.462 -0.000,0.01911878,0.003437396,0.002913562
3-0101,monoCl,BYCOLQXRHZTKFZ-UHFFFAOYSA-N,Clc1cc2cc3-c4ccc5c(c4-c4c3c(c2cc1)ccc4)cccc5,C24H13Cl,r2scan,336.821,13,24,1,-1382.409353016941,-1382.1034326843,0.0002087927,-1382.1656842184,7.857641720151,7.6414196455,0.0017801945,7.1106544985,0.2873106474,-5.3731,-2.9166,2.4565,1.85477,336.87284,-0.60188 0.41257 -0.00002,0.018926,0.003409,0.002889
3-0101,monoCl,BYCOLQXRHZTKFZ-UHFFFAOYSA-N,Clc1cc2cc3-c4ccc5c(c4-c4c3c(c2cc1)ccc4)cccc5,C24H13Cl,d4tzvp,336.821,13,24,1,-1383.413000206896,-1383.1070798743,0.0002087927,-1383.1693314084,7.747847875104,7.5316258003,0.0017801945,7.0008606546,0.2873106474,-7.9798,-0.6072,7.3726,1.93704,319.48492,-0.64783 0.40134 -0.00002,0.018926,0.003409,0.002889
3-0102,monoCl,BYEQJQMHKKIOOE-UHFFFAOYSA-N,c1cc2ccc3c4c2c(c1)c(Cl)cc4c1c(c3)c2c1cccc2,C22H11Cl,xtb2,310.783,11,22,1,-57.2481345464,-56.983867773969,0.000201493721,-57.043943126928,8.984778838113,8.800770030602,0.001483135791,8.35857309336,0.247087398005,-9.8647,-7.9083,1.956400537592,1.949,231.735916,0.224 -0.733 -0.000,0.01513589,0.005730252,0.004156612
3-0102,monoCl,BYEQJQMHKKIOOE-UHFFFAOYSA-N,c1cc2ccc3c4c2c(c1)c(Cl)cc4c1c(c3)c2c1cccc2,C22H11Cl,r2scan,310.783,11,22,1,-1304.944687787341,-1304.6754336852,0.0001967824,-1304.7341043593,7.051952036457,6.8629542704,0.0015914886,6.3884518086,0.252384338,-5.0156,-2.7739,2.2417,1.75636,314.62201,0.19037 -0.66425 -0.00002,0.014952,0.005684,0.004118
3-0102,monoCl,BYEQJQMHKKIOOE-UHFFFAOYSA-N,c1cc2ccc3c4c2c(c1)c(Cl)cc4c1c(c3)c2c1cccc2,C22H11Cl,d4tzvp,310.783,11,22,1,-1305.85917864135,-1305.5899245392002,0.0001967824,-1305.6485952133005,6.949707279804,6.7607095136,0.0015914886,6.2862070529,0.252384338,-7.4077,-0.4885,6.9192,1.79579,299.11788,0.18537 -0.68175 -0.00001,0.014952,0.005684,0.004118
3-0103,monoCl,BZQWNWGOOJERAG-UHFFFAOYSA-N,c1c2c(cc3c(c2)c2ccccc2cc3)c2c(c1)c1ccc(cc1cc2)Cl,C26H15Cl,xtb2,362.859,15,26,1,-67.911080202279,-67.57576117177,0.000228020031,-67.643745344137,10.900607952788,10.664431114239,0.001835174093,10.117273957225,0.314399224041,-10.0116,-7.7224,2.289182120123,2.609,279.847867,-1.022 0.097 -0.000,0.02664511,0.002145384,0.001985516
3-0103,monoCl,BZQWNWGOOJERAG-UHFFFAOYSA-N,c1c2c(cc3c(c2)c2ccccc2cc3)c2c(c1)c1ccc(cc1cc2)Cl,C26H15Cl,r2scan,362.859,15,26,1,-1459.819317837394,-1459.4770009152,0.0002210113,-1459.5428954234,8.608630994698,8.3654542524,0.0019686921,7.7784885343,0.3219611706,-5.2384,-2.5893,2.6491,2.39722,386.27808,-0.93624 0.11368 0.00001,0.026381,0.002128,0.00197
3-0103,monoCl,BZQWNWGOOJERAG-UHFFFAOYSA-N,c1c2c(cc3c(c2)c2ccccc2cc3)c2c(c1)c1ccc(cc1cc2)Cl,C26H15Cl,d4tzvp,362.859,15,26,1,-1460.90851369325,-1460.566196771,0.0002210113,-1460.6320912792,8.487680391212,8.2445036486,0.0019686921,7.657537932,0.3219611706,-7.7086,-0.2215,7.4871,2.38522,363.02051,-0.93261 0.10408 0.00003,0.026381,0.002128,0.00197
3-0104,monoCl,CBWDAFZCYRQNHX-UHFFFAOYSA-N,c1ccc2c(c1)ccc1c2c2c1cc(c1c2c2c1cccc2)Cl,C22H11Cl,xtb2,310.783,11,22,1,-57.159496891084,-56.896131448065,0.000207427789,-56.957976043338,8.896141182797,8.713033704698,0.001477201723,8.27260600977,0.245563256239,-9.9322,-7.8415,2.090684145207,2.569,229.25049,0.701 -0.728 -0.000,0.01377581,0.005282239,0.003818184
3-0104,monoCl,CBWDAFZCYRQNHX-UHFFFAOYSA-N,c1ccc2c(c1)ccc1c2c2c1cc(c1c2c2c1cccc2)Cl,C22H11Cl,r2scan,310.783,11,22,1,-1304.844990011313,-1304.5769258806,0.0002002532,-1304.6366313726,6.952254260429,6.7644464658,0.0015880178,6.2909788219,0.2505636955,-5.0427,-2.7554,2.2873,2.63984,312.95289,0.74945 -0.71900 -0.00003,0.013686,0.005223,0.00378
3-0104,monoCl,CBWDAFZCYRQNHX-UHFFFAOYSA-N,c1ccc2c(c1)ccc1c2c2c1cc(c1c2c2c1cccc2)Cl,C22H11Cl,d4tzvp,310.783,11,22,1,-1305.759750999261,-1305.4916868685998,0.0002002532,-1305.5513923606,6.850279637715,6.662471843,0.0015880178,6.1890042002,0.2505636955,-7.5895,-0.3076,7.2819,2.68491,293.2613,0.76203 -0.73150 -0.00002,0.013686,0.005223,0.00378
3-0105,monoCl,CCUXPFNKMSVHCB-UHFFFAOYSA-N,c1ccc2c(c1)c(Cl)c1c3c2c2ccccc2c2c3c(cc1)ccc2,C24H13Cl,xtb2,336.821,13,24,1,-62.614382015629,-62.313807890663,0.000210130737,-62.376458369946,9.97746803674,9.766593990214,0.001663781081,9.270537659706,0.281983094189,-9.8545,-7.8355,2.019050083121,1.966,257.257729,0.357 0.654 -0.207,0.009906128,0.00707157,0.004267664
3-0105,monoCl,CCUXPFNKMSVHCB-UHFFFAOYSA-N,c1ccc2c(c1)c(Cl)c1c3c2c2ccccc2c2c3c(cc1)ccc2,C24H13Cl,r2scan,336.821,13,24,1,-1382.417268916491,-1382.1098403508,0.0002032737,-1382.1704463943,7.865557619701,7.647827312,0.0017857135,7.1154166744,0.289468345,-5.0805,-2.7323,2.3482,1.83373,322.27875,0.35270 0.60402 -0.17669,0.009821,0.006985,0.004212
3-0105,monoCl,CCUXPFNKMSVHCB-UHFFFAOYSA-N,c1ccc2c(c1)c(Cl)c1c3c2c2ccccc2c2c3c(cc1)ccc2,C24H13Cl,d4tzvp,336.821,13,24,1,-1383.420113899179,-1383.1126853335,0.0002032737,-1383.173291377,7.754961567387,7.5372312595,0.0017857135,7.0048206232,0.289468345,-7.4754,-0.4714,7.004,1.87525,311.19537,0.36431 0.61675 -0.17660,0.009821,0.006985,0.004212
3-0106,monoCl,CCZCUYLHPQGXPF-UHFFFAOYSA-N,c1ccc2c(c1)cc1c3c2ccc2c3c(cc1)c(c1c2cccc1)Cl,C24H13Cl,xtb2,336.821,13,24,1,-62.618977663062,-62.318558634476,0.000210207514,-62.38123200479,9.982063684173,9.771344734027,0.001663704304,9.27531129455,0.281766596177,-9.7971,-7.9383,1.85882523144,1.989,257.279506,-0.445 -0.644 0.000,0.01625741,0.004403868,0.003465201
3-0106,monoCl,CCZCUYLHPQGXPF-UHFFFAOYSA-N,c1ccc2c(c1)cc1c3c2ccc2c3c(cc1)c(c1c2cccc1)Cl,C24H13Cl,r2scan,336.821,13,24,1,-1382.425276717344,-1382.118998492,0.0002074572,-1382.1808518461,7.873565420554,7.6569854532,0.00178153,7.1258221262,0.287731689,-5.0152,-2.7793,2.2359,1.89261,349.40678,-0.42969 -0.60810 -0.00001,0.01605,0.00437,0.003435
3-0106,monoCl,CCZCUYLHPQGXPF-UHFFFAOYSA-N,c1ccc2c(c1)cc1c3c2ccc2c3c(cc1)c(c1c2cccc1)Cl,C24H13Cl,d4tzvp,336.821,13,24,1,-1383.426534426728,-1383.1202562014,0.0002074572,-1383.1821095555,7.761382094936,7.5448021274,0.00178153,7.0136388017,0.287731689,-7.3336,-0.5635,6.7701,1.91477,334.27521,-0.44505 -0.60779 -0.00000,0.01605,0.00437,0.003435
3-0107,monoCl,CDEOZJBMXLEQCY-UHFFFAOYSA-N,c1c(Cl)cc2c(c1)cc1c(c2)c2ccccc2c2c1c1ccccc1cc2,C26H15Cl,xtb2,362.859,15,26,1,-67.90353958443,-67.568144880869,0.000226502964,-67.635676739507,10.893067334939,10.656814823338,0.00183669116,10.109205352595,0.314676386766,-9.9708,-7.7063,2.264467602298,2.511,279.813896,0.974 -0.165 -0.009,0.008435783,0.004112647,0.002831947
3-0107,monoCl,CDEOZJBMXLEQCY-UHFFFAOYSA-N,c1c(Cl)cc2c(c1)cc1c(c2)c2ccccc2c2c1c1ccccc1cc2,C26H15Cl,r2scan,362.859,15,26,1,-1459.80813531761,-1459.4650131522,0.0002182017,-1459.5300699859,8.597448474914,8.3534664894,0.0019715017,7.7656630968,0.3231325027,-5.1843,-2.6314,2.5529,2.34519,361.24686,0.91357 -0.12896 0.00678,0.008371,0.004056,0.002791
3-0107,monoCl,CDEOZJBMXLEQCY-UHFFFAOYSA-N,c1c(Cl)cc2c(c1)cc1c(c2)c2ccccc2c2c1c1ccccc1cc2,C26H15Cl,d4tzvp,362.859,15,26,1,-1460.89779566474,-1460.5546734993,0.0002182017,-1460.6197303329998,8.476962362702,8.2329803769,0.0019715017,7.6451769858,0.3231325027,-7.6607,-0.2534,7.4073,2.35053,343.59882,0.91563 -0.12954 0.00235,0.008371,0.004056,0.002791
3-0108,monoCl,CDOOGFYLLGZMDH-UHFFFAOYSA-N,Clc1ccc2c(c1)cc1c(c2)c2c(cc1)cc1c(c2)cc2c(c1)cccc2,C26H15Cl,xtb2,362.859,15,26,1,-67.900672793755,-67.566137728337,0.000226902316,-67.633788653985,10.890200544264,10.654807670806,0.001836291808,10.107317267073,0.3137214168,-9.792,-7.9332,1.858855599734,2.658,279.865447,-1.032 -0.173 -0.000,0.01885637,0.002160794,0.001938641
3-0108,monoCl,CDOOGFYLLGZMDH-UHFFFAOYSA-N,Clc1ccc2c(c1)cc1c(c2)c2c(cc1)cc1c(c2)cc2c(c1)cccc2,C26H15Cl,r2scan,362.859,15,26,1,-1459.80726715467,-1459.4657342508,0.0002207819,-1459.5315603793,8.596580311974,8.354187588,0.0019689215,7.7671534902,0.3212169191,-4.9543,-2.896,2.0583,2.41531,418.95981,-0.94406 -0.10822 0.00004,0.018729,0.002142,0.001922
3-0108,monoCl,CDOOGFYLLGZMDH-UHFFFAOYSA-N,Clc1ccc2c(c1)cc1c(c2)c2c(cc1)cc1c(c2)cc2c(c1)cccc2,C26H15Cl,d4tzvp,362.859,15,26,1,-1460.890215482596,-1460.5486825787002,0.0002207819,-1460.6145087072,8.469382180558,8.2269894563,0.0019689215,7.63995536,0.3212169191,-7.3529,-0.5891,6.7638,2.39498,385.92946,-0.93446 -0.12084 0.00003,0.018729,0.002142,0.001922
3-0109,monoCl,CEBIZLIHCYOAQZ-UHFFFAOYSA-N,c1ccc2c(c1)ccc1c2cc2c(c1)c1c(Cl)cccc1cc2,C22H13Cl,xtb2,312.799,13,22,1,-58.309071213273,-58.021869474447,0.000206166041,-58.083337879717,9.258749977114,9.056527259968,0.001561339521,8.591013880847,0.269302360362,-10.0492,-7.5493,2.499956795377,1.598,239.884845,0.062 0.604 -0.164,0.02057494,0.004545125,0.003761746
3-0109,monoCl,CEBIZLIHCYOAQZ-UHFFFAOYSA-N,c1ccc2c(c1)ccc1c2cc2c(c1)c1c(Cl)cccc1cc2,C22H13Cl,r2scan,312.799,13,22,1,-1306.198412471797,-1305.9048011787,0.0002003438,-1305.9645336949,7.311133349543,7.1024993535,0.001675231,6.6030291084,0.2762945519,-5.2677,-2.4177,2.85,1.47752,308.07974,0.07591 0.55142 -0.16755,0.02031,0.004482,0.003708
3-0109,monoCl,CEBIZLIHCYOAQZ-UHFFFAOYSA-N,c1ccc2c(c1)ccc1c2cc2c(c1)c1c(Cl)cccc1cc2,C22H13Cl,d4tzvp,312.799,13,22,1,-1307.128969919715,-1306.8353586265998,0.0002003438,-1306.8950911428,7.209439503489,7.0008055072,0.001675231,6.5013352634,0.2762945519,-7.777,0.0004,7.7774,1.50889,293.97112,0.12439 0.55430 -0.17227,0.02031,0.004482,0.003708
3-0110,monoCl,CEWBGXZBAFCUIB-UHFFFAOYSA-N,c1ccc2c(c1)c1c3ccc4c(c3ccc1cc2)c1ccccc1cc4Cl,C26H15Cl,xtb2,362.859,15,26,1,-67.900379987058,-67.564871557416,0.000223894403,-67.631625673647,10.889907737567,10.653541499885,0.001839299721,10.105154286735,0.315007542003,-10.0949,-7.4913,2.603592438109,2.111,279.818429,-0.221 0.768 -0.224,0.01139195,0.003746318,0.002988843
3-0110,monoCl,CEWBGXZBAFCUIB-UHFFFAOYSA-N,c1ccc2c(c1)c1c3ccc4c(c3ccc1cc2)c1ccccc1cc4Cl,C26H15Cl,r2scan,362.859,15,26,1,-1459.804277853387,-1459.4607361818,0.0002159077,-1459.5251090609,8.593591010691,8.349189519,0.0019737957,7.7607021718,0.3238318684,-5.3665,-2.4265,2.94,1.96168,357.61948,-0.22037 0.70351 -0.22833,0.011324,0.003684,0.002936
3-0110,monoCl,CEWBGXZBAFCUIB-UHFFFAOYSA-N,c1ccc2c(c1)c1c3ccc4c(c3ccc1cc2)c1ccccc1cc4Cl,C26H15Cl,d4tzvp,362.859,15,26,1,-1460.893387317164,-1460.5498456456,0.0002159077,-1460.6142185247,8.472554015126,8.2281525232,0.0019737957,7.6396651775,0.3238318684,-7.8887,-0.0362,7.8525,1.95112,340.61247,-0.17408 0.71192 -0.22824,0.011324,0.003684,0.002936
3-0111,monoCl,CFBPJELZTXIGFN-UHFFFAOYSA-N,c1ccc2c(c1)c1ccc3c(c1cc2)c1ccc2c(c1c(c3)Cl)cccc2,C26H15Cl,xtb2,362.859,15,26,1,-67.898893522018,-67.56345103317,0.000224854056,-67.630491269915,10.888421272527,10.652120975639,0.001838340068,10.104019883003,0.314833963406,-10.0806,-7.6272,2.453435552703,2.04,279.850307,-0.597 -0.536 0.027,0.01428175,0.00336818,0.002781039
3-0111,monoCl,CFBPJELZTXIGFN-UHFFFAOYSA-N,c1ccc2c(c1)c1ccc3c(c1cc2)c1ccc2c(c1c(c3)Cl)cccc2,C26H15Cl,r2scan,362.859,15,26,1,-1459.800354263794,-1459.4570623428,0.000216793,-1459.5216991697,8.589667421098,8.34551568,0.0019729104,7.7572922806,0.3234372444,-5.3283,-2.5176,2.8107,1.84458,366.47867,-0.53829 -0.48625 -0.02110,0.014119,0.00332,0.00274
3-0111,monoCl,CFBPJELZTXIGFN-UHFFFAOYSA-N,c1ccc2c(c1)c1ccc3c(c1cc2)c1ccc2c(c1c(c3)Cl)cccc2,C26H15Cl,d4tzvp,362.859,15,26,1,-1460.890131855639,-1460.5468399346,0.000216793,-1460.6114767615,8.469298553601,8.2251468122,0.0019729104,7.6369234143,0.3234372444,-7.8321,-0.1482,7.6839,1.89566,348.12604,-0.57306 -0.47695 -0.01828,0.014119,0.00332,0.00274
3-0112,monoCl,CGOJNIRDZUCVGI-UHFFFAOYSA-N,c1ccc2c(c1)cc1c3c2cccc3c2c3c1c(Cl)ccc3ccc2,C24H13Cl,xtb2,336.821,13,24,1,-62.611985045739,-62.311592271404,0.000211057653,-62.374519110515,9.97507106685,9.764378370955,0.001662854165,9.268598400275,0.28170763284,-9.7886,-7.9023,1.886220621451,1.606,257.256956,-0.231 0.549 -0.210,0.01145805,0.006108712,0.004117211
3-0112,monoCl,CGOJNIRDZUCVGI-UHFFFAOYSA-N,c1ccc2c(c1)cc1c3c2cccc3c2c3c1c(Cl)ccc3ccc2,C24H13Cl,r2scan,336.821,13,24,1,-1382.412618547427,-1382.1055919532,0.0002042467,-1382.1664881141,7.860907250637,7.6435789144,0.0017847405,7.1114583942,0.2889468831,-4.9659,-2.7955,2.1704,1.3886,325.84734,-0.21359 0.45510 -0.21380,0.01129,0.006037,0.004066
3-0112,monoCl,CGOJNIRDZUCVGI-UHFFFAOYSA-N,c1ccc2c(c1)cc1c3c2cccc3c2c3c1c(Cl)ccc3ccc2,C24H13Cl,d4tzvp,336.821,13,24,1,-1383.416485716783,-1383.1094591226,0.0002042467,-1383.1703552835002,7.751333384991,7.5340050486,0.0017847405,7.0018845297,0.2889468831,-7.3657,-0.5132,6.8525,1.44317,311.61525,-0.24584 0.46115 -0.22196,0.01129,0.006037,0.004066
3-0113,monoCl,CGXQZJXAMOYZFD-UHFFFAOYSA-N,c1ccc2-c3c4c(-c2c1)cc1cc(Cl)ccc1c4cc1c3cccc1,C24H13Cl,xtb2,336.821,13,24,1,-62.602984840687,-62.303077567363,0.000214988865,-62.367176497505,9.966070861798,9.755863666914,0.001658922953,9.261255787265,0.280883356963,-10.0468,-8.098,1.948790476952,2.062,257.171474,0.779 0.228 0.000,0.01090193,0.004612019,0.003240949
3-0113,monoCl,CGXQZJXAMOYZFD-UHFFFAOYSA-N,c1ccc2-c3c4c(-c2c1)cc1cc(Cl)ccc1c4cc1c3cccc1,C24H13Cl,r2scan,336.821,13,24,1,-1382.406768756585,-1382.1009910978,0.0002094251,-1382.1634311891,7.855057459795,7.638978059,0.0017795621,7.1084014692,0.2870833153,-5.2896,-3.0277,2.2619,1.81451,337.65052,0.66754 0.25297 -0.00000,0.010809,0.004572,0.003213
3-0113,monoCl,CGXQZJXAMOYZFD-UHFFFAOYSA-N,c1ccc2-c3c4c(-c2c1)cc1cc(Cl)ccc1c4cc1c3cccc1,C24H13Cl,d4tzvp,336.821,13,24,1,-1383.409715582233,-1383.1039379234,0.0002094251,-1383.1663780147,7.744563250441,7.5284838494,0.0017795621,6.9979072609,0.2870833153,-7.7757,-0.7449,7.0308,1.83625,322.28081,0.68444 0.23117 -0.00000,0.010809,0.004572,0.003213
3-0114,monoCl,CHIGEFKERQHDCY-UHFFFAOYSA-N,c1c(Cl)cc2c(c1)c1c3c(ccc1cc2)ccc1c3ccc2c1cccc2,C26H15Cl,xtb2,362.859,15,26,1,-67.903417700407,-67.568265012043,0.000224856618,-67.635306012843,10.892945450916,10.656934954512,0.001838337506,10.108834625931,0.314547508378,-10.0954,-7.522,2.57331428362,2.369,279.829216,0.278 0.882 -0.119,0.008449433,0.004655077,0.003159717
3-0114,monoCl,CHIGEFKERQHDCY-UHFFFAOYSA-N,c1c(Cl)cc2c(c1)c1c3c(ccc1cc2)ccc1c3ccc2c1cccc2,C26H15Cl,r2scan,362.859,15,26,1,-1459.807149123291,-1459.4641331398,0.000216493,-1459.5286805278,8.596462280595,8.352586477,0.0019732104,7.7642736387,0.3231985183,-5.3761,-2.411,2.9651,2.15166,349.98299,0.28322 0.78881 -0.11896,0.008473,0.004497,0.00309
3-0114,monoCl,CHIGEFKERQHDCY-UHFFFAOYSA-N,c1c(Cl)cc2c(c1)c1c3c(ccc1cc2)ccc1c3ccc2c1cccc2,C26H15Cl,d4tzvp,362.859,15,26,1,-1460.895829544342,-1460.5528135608,0.000216493,-1460.6173609488,8.474996242304,8.2311204384,0.0019732104,7.6428076016,0.3231985183,-7.905,-0.0197,7.8853,2.20622,334.9235,0.26575 0.81648 -0.12696,0.008473,0.004497,0.00309
3-0115,monoCl,CIPPCVPPEFXCJB-UHFFFAOYSA-N,c1ccc2c(c1)c1c(c3c2c2ccccc2cc3)cc2c(c1)cccc2Cl,C26H15Cl,xtb2,362.859,15,26,1,-67.903163318408,-67.567683209436,0.00022551797,-67.634921392176,10.892691068917,10.656353151905,0.001837676154,10.108450005264,0.314783381626,-9.9483,-7.6895,2.258796634804,1.861,279.824269,0.188 -0.690 0.156,0.01038841,0.004016165,0.002981757
3-0115,monoCl,CIPPCVPPEFXCJB-UHFFFAOYSA-N,c1ccc2c(c1)c1c(c3c2c2ccccc2cc3)cc2c(c1)cccc2Cl,C26H15Cl,r2scan,362.859,15,26,1,-1459.807558972692,-1459.4643319681,0.0002181097,-1459.5293613748,8.596872129996,8.3527853053,0.0019715937,7.7649544857,0.3232572891,-5.1959,-2.6207,2.5752,1.71166,359.09355,0.16481 -0.63645 0.14577,0.010226,0.003985,0.002943
3-0115,monoCl,CIPPCVPPEFXCJB-UHFFFAOYSA-N,c1ccc2c(c1)c1c(c3c2c2ccccc2cc3)cc2c(c1)cccc2Cl,C26H15Cl,d4tzvp,362.859,15,26,1,-1460.897589607523,-1460.5543626029,0.0002181097,-1460.6193920096,8.476756305485,8.2326694805,0.0019715937,7.6448386624,0.3232572891,-7.6669,-0.2503,7.4166,1.68734,342.5356,0.10855 -0.63757 0.14968,0.010226,0.003985,0.002943
3-0116,monoCl,CJOLAGNVNQYUTD-UHFFFAOYSA-N,c1ccc2-c3c(-c2c1)c1c(cc3)c2cc(Cl)ccc2c2c1cccc2,C24H13Cl,xtb2,336.821,13,24,1,-62.534321477446,-62.234613421122,0.000218911009,-62.299881738426,9.897407498557,9.687399520673,0.001655000809,9.193961028186,0.280265941029,-9.949,-7.6519,2.29706961667,2.356,254.30465,-0.657 0.654 0.011,0.01280538,0.00435571,0.00326242
3-0116,monoCl,CJOLAGNVNQYUTD-UHFFFAOYSA-N,c1ccc2-c3c(-c2c1)c1c(cc3)c2cc(Cl)ccc2c2c1cccc2,C24H13Cl,r2scan,336.821,13,24,1,-1382.329804487411,-1382.0248260935,0.0002144199,-1382.0887553918,7.778093190621,7.5628130547,0.0017745673,7.0337256719,0.2857415589,-5.1229,-2.6312,2.4917,2.12524,325.28839,-0.59461 0.58705 0.03001,0.012737,0.004305,0.003225
3-0116,monoCl,CJOLAGNVNQYUTD-UHFFFAOYSA-N,c1ccc2-c3c(-c2c1)c1c(cc3)c2cc(Cl)ccc2c2c1cccc2,C24H13Cl,d4tzvp,336.821,13,24,1,-1383.337107151677,-1383.0321287578,0.0002144199,-1383.0960580561,7.671954819885,7.4566746838,0.0017745673,6.9275873023,0.2857415589,-7.6865,-0.0873,7.5992,2.08346,309.48632,-0.57090 0.58747 0.02898,0.012737,0.004305,0.003225