id,subset,key,smiles,formula,level,mwt,nH,nC,nCl,E,H,S,G,dE,dH,dS,dG,zpe,homo,lumo,gap,Mu,alpha,tMu,rotA,rotB,rotC
2-0382,pubchemPCH,VQBIYCQGHAHVPN-UHFFFAOYSA-N,c1ccc2c(c1Cl)cc(cc2)Cl,C10H6Cl2,r2scan,197.064,6,10,2,-1304.957407125536,-1304.8197463446,0.0001530017,-1304.8653638007,3.42362956184,3.3284574294,0.0007970991,3.0908022535,0.1273319147,-5.8568,-2.3981,3.4587,2.80482,142.32452,0.55333 0.95472 -0.00000,0.037147,0.017437,0.011867
2-0382,pubchemPCH,VQBIYCQGHAHVPN-UHFFFAOYSA-N,c1ccc2c(c1Cl)cc(cc2)Cl,C10H6Cl2,d4tzvp,197.064,6,10,2,-1305.444794479865,-1305.307133699,0.0001530017,-1305.3527511551,3.381896758835,3.2867246264,0.0007970991,3.0490694511,0.1273319147,-8.6265,0.168,8.7945,2.87318,140.16498,0.58205 0.96900 -0.00001,0.037147,0.017437,0.011867
2-0383,pubchemPCH,VQJFGZPCLSPUPP-UHFFFAOYSA-N,c1ccc2c(c1)c1ccccc1c(c2Cl)Cl,C14H8Cl2,xtb2,247.124,8,14,2,-43.172329630151,-42.989399140077,0.000175016936,-43.041580439416,5.953268049631,5.826990240677,0.001018015898,5.523468799944,0.169346912254,-10.4368,-7.5818,2.855038097182,3.033,172.305887,-0.000 -1.193 0.000,0.01768665,0.01577016,0.008336758
2-0383,pubchemPCH,VQJFGZPCLSPUPP-UHFFFAOYSA-N,c1ccc2c(c1)c1ccccc1c(c2Cl)Cl,C14H8Cl2,r2scan,247.124,8,14,2,-1458.563415328706,-1458.3766160259,0.0001705956,-1458.4274790956,4.706230044568,4.5760822731,0.0010936338,4.2500152458,0.1735625377,-5.7446,-2.3053,3.4393,2.74894,193.10239,-0.00007 -1.08149 0.00004,0.017466,0.015615,0.008244
2-0383,pubchemPCH,VQJFGZPCLSPUPP-UHFFFAOYSA-N,c1ccc2c(c1)c1ccccc1c(c2Cl)Cl,C14H8Cl2,d4tzvp,247.124,8,14,2,-1459.213278531402,-1459.0264792285998,0.0001705956,-1459.0773422982998,4.64907792456,4.518930153,0.0010936338,4.1928631265,0.1735625377,-8.4415,0.1798,8.6213,2.78357,188.9806,-0.00007 -1.09512 0.00004,0.017466,0.015615,0.008244
2-0384,pubchemPCH,VQPNISXVFCDEFK-UHFFFAOYSA-N,c1ccc2c(c1)c1ccc3c(c1cc2)c(Cl)ccc3Cl,C18H10Cl2,xtb2,297.184,10,18,2,-52.762299662184,-52.53131891619,0.000196988657,-52.590051084392,7.583087068332,7.422922173738,0.001291732739,7.037792056878,0.214637120866,-10.2721,-7.7174,2.554616813285,1.346,212.156442,-0.524 -0.043 0.068,0.0173261,0.006417453,0.004758196
2-0384,pubchemPCH,VQPNISXVFCDEFK-UHFFFAOYSA-N,c1ccc2c(c1)c1ccc3c(c1cc2)c(Cl)ccc3Cl,C18H10Cl2,r2scan,297.184,10,18,2,-1612.1661124707,-1611.9297945918,0.00019074,-1611.9866637221,5.98551946612,5.8200160014,0.001387618,5.4062975697,0.220520097,-5.4969,-2.521,2.9759,1.17393,254.55407,-0.45241 -0.03364 0.08660,0.01702,0.006338,0.004694
2-0384,pubchemPCH,VQPNISXVFCDEFK-UHFFFAOYSA-N,c1ccc2c(c1)c1ccc3c(c1cc2)c(Cl)ccc3Cl,C18H10Cl2,d4tzvp,297.184,10,18,2,-1612.973334561895,-1612.737016683,0.00019074,-1612.7938858133,5.907831069241,5.7423276044,0.001387618,5.3286091737,0.220520097,-8.0669,-0.0982,7.9687,1.02918,246.39118,-0.39377 -0.03066 0.08915,0.01702,0.006338,0.004694
2-0385,pubchemPCH,VQSNXLCFFHGXTI-UHFFFAOYSA-N,c1ccc2c(c1Cl)c(Cl)ccc2Cl,C10H5Cl3,xtb2,231.509,5,10,3,-37.621088832733,-37.494705697706,0.000166301583,-37.544288514706,4.27313589452,4.189242270333,0.000747947085,3.96624184659,0.114414713868,-10.5893,-7.8916,2.697684314195,1.231,144.608782,-0.315 0.368 0.000,0.0299611,0.01454167,0.009790052
2-0385,pubchemPCH,VQSNXLCFFHGXTI-UHFFFAOYSA-N,c1ccc2c(c1Cl)c(Cl)ccc2Cl,C10H5Cl3,r2scan,231.509,5,10,3,-1764.522140265052,-1764.3929670263,0.0001646248,-1764.4420499036,3.371641098588,3.2849565083,0.0008023878,3.0457244879,0.1174666595,-5.7765,-2.6104,3.1661,1.38919,154.99009,-0.36797 0.40411 0.00003,0.029073,0.014289,0.00958
2-0385,pubchemPCH,VQSNXLCFFHGXTI-UHFFFAOYSA-N,c1ccc2c(c1Cl)c(Cl)ccc2Cl,C10H5Cl3,d4tzvp,231.509,5,10,3,-1765.045994772239,-1764.9168215334,0.0001646248,-1764.9659044107,3.335821088969,3.2491364986,0.0008023878,3.0099044787,0.1174666595,-8.5194,-0.1048,8.4146,1.46844,152.12576,-0.40208 0.41484 0.00003,0.029073,0.014289,0.00958
2-0386,pubchemPCH,VTRHEZBKUFMTNM-UHFFFAOYSA-N,c1ccc2-c3c(-c4c2c1ccc4)cccc3Cl,C16H9Cl,xtb2,236.701,9,16,1,-43.412027450636,-43.208177131398,0.000172635485,-43.259648401359,6.695415498411,6.552938917053,0.001109899209,6.222022467203,0.190698497156,-10.3782,-7.8978,2.480365769601,1.969,177.186526,0.495 -0.596 0.000,0.02513543,0.01290028,0.008524992
2-0386,pubchemPCH,VTRHEZBKUFMTNM-UHFFFAOYSA-N,c1ccc2-c3c(-c4c2c1ccc4)cccc3Cl,C16H9Cl,r2scan,236.701,9,16,1,-1075.186424016822,-1074.9781960234,0.0001686341,-1075.0284742699,5.281528160916,5.1346726598,0.0011920959,4.7792491552,0.1954713258,-5.676,-2.7779,2.8981,1.83221,203.30757,0.46437 -0.55133 0.00002,0.024914,0.012734,0.008427
2-0386,pubchemPCH,VTRHEZBKUFMTNM-UHFFFAOYSA-N,c1ccc2-c3c(-c4c2c1ccc4)cccc3Cl,C16H9Cl,d4tzvp,236.701,9,16,1,-1075.872164044763,-1075.6639360514,0.0001686341,-1075.7142142979,5.209617484595,5.0627619834,0.0011920959,4.7073384797,0.1954713258,-8.3137,-0.3708,7.9429,1.78396,198.66897,0.41363 -0.56701 0.00002,0.024914,0.012734,0.008427
2-0387,pubchemPCH,VULJAFOZDJEHIX-UHFFFAOYSA-N,c1ccc2c3c1ccc1c3c(c(c2)Cl)ccc1Cl,C16H8Cl2,xtb2,271.146,8,16,2,-47.483872666072,-47.287980880863,0.000181664687,-47.342144207335,6.678218342822,6.543700295493,0.001117774403,6.210435856493,0.181635974263,-10.255,-7.9686,2.286413349038,2.076,189.528354,0.750 0.323 -0.000,0.01481288,0.01141669,0.006447457
2-0387,pubchemPCH,VULJAFOZDJEHIX-UHFFFAOYSA-N,c1ccc2c3c1ccc1c3c(c(c2)Cl)ccc1Cl,C16H8Cl2,r2scan,271.146,8,16,2,-1534.791663956947,-1534.5916865905,0.0001773335,-1534.6445585794,5.270046498273,5.1314416241,0.0012003083,4.7735695962,0.1860577082,-5.4419,-2.7103,2.7316,1.94806,223.67887,0.71313 0.28076 -0.00001,0.01467,0.011271,0.006374
2-0387,pubchemPCH,VULJAFOZDJEHIX-UHFFFAOYSA-N,c1ccc2c3c1ccc1c3c(c(c2)Cl)ccc1Cl,C16H8Cl2,d4tzvp,271.146,8,16,2,-1535.509782888723,-1535.3098055223002,0.0001773335,-1535.3626775112,5.199960366315,5.0613554921,0.0012003083,4.703483465,0.1860577082,-7.8988,-0.3929,7.5059,1.99662,218.38218,0.73934 0.26533 -0.00001,0.01467,0.011271,0.006374
2-0388,pubchemPCH,VWMIAMQUIBTXOV-UHFFFAOYSA-N,c1c(Cl)cc2c(c1)c(Cl)c(c1c2cccc1)Cl,C14H7Cl3,xtb2,281.569,7,14,3,-47.2241137037,-47.049468908242,0.000188241896,-47.105593229527,5.916009752155,5.798017637817,0.001021695334,5.493399173369,0.15972886303,-10.5758,-7.815,2.760747665916,1.917,184.559431,-0.289 -0.697 0.000,0.0166568,0.008771424,0.005745735
2-0388,pubchemPCH,VWMIAMQUIBTXOV-UHFFFAOYSA-N,c1c(Cl)cc2c(c1)c(Cl)c(c1c2cccc1)Cl,C14H7Cl3,r2scan,281.569,7,14,3,-1918.145652359864,-1917.9674373124,0.0001837574,-1918.0222245669,4.671745472958,4.5501819568,0.0010973838,4.2229968486,0.1635988095,-5.8348,-2.4812,3.3536,1.67197,211.37621,-0.29194 -0.58946 0.00003,0.016467,0.008681,0.005684
2-0388,pubchemPCH,VWMIAMQUIBTXOV-UHFFFAOYSA-N,c1c(Cl)cc2c(c1)c(Cl)c(c1c2cccc1)Cl,C14H7Cl3,d4tzvp,281.569,7,14,3,-1918.830491928276,-1918.6522768808,0.0001837574,-1918.7070641353,4.619015359194,4.497451843,0.0010973838,4.1702667355,0.1635988095,-8.5258,-0.0092,8.5166,1.68853,205.1094,-0.29474 -0.59534 0.00003,0.016467,0.008681,0.005684
2-0389,pubchemPCH,VWOHJCWTLDEXNC-UHFFFAOYSA-N,c1ccc2-c3c(-c2c1)c(Cl)ccc3,C12H7Cl,xtb2,186.641,7,12,1,-33.745955999286,-33.590907241884,0.000155737585,-33.637340402835,4.989495060393,4.881656870591,0.000831108547,4.633861856721,0.14432559412,-10.2357,-7.5362,2.699468856614,1.8,134.222922,0.296 -0.643 0.000,0.04275179,0.01847423,0.01289985
2-0389,pubchemPCH,VWOHJCWTLDEXNC-UHFFFAOYSA-N,c1ccc2-c3c(-c2c1)c(Cl)ccc3,C12H7Cl,r2scan,186.641,7,12,1,-921.497494853925,-921.3395107775,0.0001534559,-921.3852636533,3.916006718461,3.8052322515,0.0008931455,3.5389408412,0.1474744745,-5.3795,-2.3981,2.9814,1.75546,153.84111,0.26660 -0.63711 0.00002,0.042255,0.01835,0.012794
2-0389,pubchemPCH,VWOHJCWTLDEXNC-UHFFFAOYSA-N,c1ccc2-c3c(-c2c1)c(Cl)ccc3,C12H7Cl,d4tzvp,186.641,7,12,1,-922.024234189295,-921.8662501129,0.0001534559,-921.9120029887,3.862990514939,3.7522160479,0.0008931455,3.4859246383,0.1474744745,-8.1163,0.282,8.3983,1.76335,150.79401,0.26050 -0.64297 0.00002,0.042255,0.01835,0.012794
2-0390,pubchemPCH,VWSMSUYRVKTAMY-UHFFFAOYSA-N,c1cc(Cl)c2-c3c4c(-c2c1)c1ccccc1cc4ccc3,C20H11Cl,xtb2,286.761,11,20,1,-53.001653864351,-52.749897000402,0.000193702076,-52.807649274389,8.324890898794,8.148670943005,0.00138452118,7.735875952191,0.235652087264,-10.0383,-8.1909,1.847322011566,2.252,217.166013,0.880 -0.106 0.000,0.01759299,0.007649887,0.005331579
2-0390,pubchemPCH,VWSMSUYRVKTAMY-UHFFFAOYSA-N,c1cc(Cl)c2-c3c4c(-c2c1)c1ccccc1cc4ccc3,C20H11Cl,r2scan,286.761,11,20,1,-1228.790067708657,-1228.5329415003,0.0001887575,-1228.5892195395,6.561764132309,6.3801732991,0.0014861011,5.9370921222,0.2414320182,-5.2639,-3.1186,2.1453,2.12814,267.07477,0.83506 -0.06066 -0.00000,0.017386,0.00758,0.005279
2-0390,pubchemPCH,VWSMSUYRVKTAMY-UHFFFAOYSA-N,c1cc(Cl)c2-c3c4c(-c2c1)c1ccccc1cc4ccc3,C20H11Cl,d4tzvp,286.761,11,20,1,-1229.632451990394,-1229.375325782,0.0001887575,-1229.4316038212,6.468602544414,6.287011711,0.0014861011,5.8439305352,0.2414320182,-7.703,-0.8369,6.8661,2.02532,259.77668,0.79331 -0.07462 -0.00001,0.017386,0.00758,0.005279
2-0391,pubchemPCH,VWXQEQQAEHPKBJ-UHFFFAOYSA-N,Clc1c(Cl)c(Cl)cc2c1c(Cl)c1c(c2)c(Cl)c(c(c1Cl)Cl)Cl,C14H2Cl8,xtb2,453.794,2,14,8,-67.434602619294,-67.301946110846,0.000238774952,-67.373136862748,5.681286812624,5.605282985296,0.001055684258,5.29053072316,0.111115019209,-10.7622,-9.0174,1.744819116981,1.493,247.489581,-0.068 -0.583 -0.014,0.009326229,0.003040888,0.002310591
2-0391,pubchemPCH,VWXQEQQAEHPKBJ-UHFFFAOYSA-N,Clc1c(Cl)c(Cl)cc2c1c(Cl)c1c(c2)c(Cl)c(c(c1Cl)Cl)Cl,C14H2Cl8,r2scan,453.794,2,14,8,-4215.991865756844,-4215.8560458469,0.0002283475,-4215.9241276476,4.434350856098,4.3551824773,0.0011373527,4.0160805868,0.1151361985,-5.7604,-3.7214,2.039,1.56473,306.92846,-0.01034 -0.61549 0.00588,0.009156,0.003024,0.002311
2-0391,pubchemPCH,VWXQEQQAEHPKBJ-UHFFFAOYSA-N,Clc1c(Cl)c(Cl)cc2c1c(Cl)c1c(c2)c(Cl)c(c(c1Cl)Cl)Cl,C14H2Cl8,d4tzvp,453.794,2,14,8,-4216.853008462065,-4216.7171885522,0.0002283475,-4216.7852703529,4.405152081783,4.3259837034,0.0011373527,3.9868818131,0.1151361985,-8.3334,-1.4442,6.8892,1.74722,289.86322,0.00440 -0.68737 -0.00413,0.009156,0.003024,0.002311
2-0392,pubchemPCH,VXJUWQODNVJENM-UHFFFAOYSA-N,c1ccc2c(c1Cl)c1c(Cl)ccc(c1cc2)Cl,C14H7Cl3,xtb2,281.569,7,14,3,-47.210395217059,-47.03620925717,0.000185944189,-47.091648516974,5.902291265514,5.784757986745,0.001023993041,5.479454460816,0.159453802833,-10.5216,-7.7719,2.749660040055,1.803,184.505704,-0.364 0.590 0.149,0.01834011,0.009977534,0.007157144
2-0392,pubchemPCH,VXJUWQODNVJENM-UHFFFAOYSA-N,c1ccc2c(c1Cl)c1c(Cl)ccc(c1cc2)Cl,C14H7Cl3,r2scan,281.569,7,14,3,-1918.124878880191,-1917.9465275294,0.000180075,-1918.0002168812,4.650971993285,4.5292721738,0.0011010662,4.2009891629,0.1641714184,-5.7181,-2.5551,3.163,1.7138,206.71819,-0.35803 0.55115 0.15054,0.017933,0.009772,0.007071
2-0392,pubchemPCH,VXJUWQODNVJENM-UHFFFAOYSA-N,c1ccc2c(c1Cl)c1c(Cl)ccc(c1cc2)Cl,C14H7Cl3,d4tzvp,281.569,7,14,3,-1918.807827886326,-1918.6294765355,0.000180075,-1918.6831658873,4.596351317244,4.4746514977,0.0011010662,4.1463684875,0.1641714184,-8.4157,-0.0622,8.3535,1.73155,201.15161,-0.34455 0.56675 0.15542,0.017933,0.009772,0.007071
2-0393,pubchemPCH,VXUMMBSUAXEMNG-UHFFFAOYSA-N,c1c(Cl)cc2c(c1Cl)c1c(Cl)cc(cc1cc2)Cl,C14H6Cl4,xtb2,316.014,6,14,4,-51.261280343302,-51.095439419239,0.000194192165,-51.153337813185,5.864134020732,5.754945777789,0.001032649461,5.447061340341,0.149738200104,-10.8375,-8.0189,2.818561951514,2.544,196.908853,0.000 1.001 -0.000,0.01999583,0.005667058,0.004713658
2-0393,pubchemPCH,VXUMMBSUAXEMNG-UHFFFAOYSA-N,c1c(Cl)cc2c(c1Cl)c1c(Cl)cc(cc1cc2)Cl,C14H6Cl4,r2scan,316.014,6,14,4,-2377.707533555847,-2377.5377270668,0.0001885595,-2377.5939460958,4.616905066173,4.5037501084,0.0011094935,4.172954509,0.154289504,-6.0371,-2.7413,3.2958,2.36165,229.70679,0.00000 0.92913 -0.00001,0.019599,0.005559,0.004646
2-0393,pubchemPCH,VXUMMBSUAXEMNG-UHFFFAOYSA-N,c1c(Cl)cc2c(c1Cl)c1c(Cl)cc(cc1cc2)Cl,C14H6Cl4,d4tzvp,316.014,6,14,4,-2378.424971192503,-2378.2551647035,0.0001885595,-2378.3113837325,4.566218661181,4.4530637035,0.0011094935,4.1222681047,0.154289504,-8.7436,-0.2348,8.5088,2.46596,220.54224,0.00001 0.97016 -0.00000,0.019599,0.005559,0.004646
2-0394,pubchemPCH,VYIHRRKJNYMCAR-UHFFFAOYSA-N,c1c2c(c(Cl)c3c(c2Cl)c(Cl)c2c(c3Cl)c(Cl)c(c(c2Cl)Cl)Cl)cc2c1cccc2,C22H6Cl8,xtb2,553.914,6,22,8,-86.599734376118,-86.371621225335,0.000276619019,-86.454095185946,8.926116542784,8.782982413681,0.001609217315,8.303194270274,0.200843333224,-10.1545,-9.1383,1.016205696044,4.948,327.34771,1.947 -0.000 0.019,0.006551977,0.0019635,0.001544139
2-0394,pubchemPCH,VYIHRRKJNYMCAR-UHFFFAOYSA-N,c1c2c(c(Cl)c3c(c2Cl)c(Cl)c2c(c3Cl)c(Cl)c(c(c2Cl)Cl)Cl)cc2c1cccc2,C22H6Cl8,r2scan,553.914,6,22,8,-4523.167506210955,-4522.9344251678,0.0002647134,-4523.0133494807,6.963175869325,6.815072123,0.001729244,6.2994978147,0.2067443959,-5.1237,-4.0911,1.0326,4.04278,455.19735,1.59052 0.00010 -0.00360,0.006454,0.001949,0.001544
2-0394,pubchemPCH,VYIHRRKJNYMCAR-UHFFFAOYSA-N,c1c2c(c(Cl)c3c(c2Cl)c(Cl)c2c(c3Cl)c(Cl)c(c(c2Cl)Cl)Cl)cc2c1cccc2,C22H6Cl8,d4tzvp,553.914,6,22,8,-4524.337750008961,-4524.104668965801,0.0002647134,-4524.1835932787,6.887287857055,6.739184111,0.001729244,6.2236098033,0.2067443959,-7.4183,-2.0584,5.3599,4.15893,431.97159,1.63621 0.00003 -0.00192,0.006454,0.001949,0.001544
2-0395,pubchemPCH,VZGWPXMIEUHPMN-UHFFFAOYSA-N,c1ccc2c(c1)ccc1c2ccc2c1ccc1c2cccc1Cl,C22H13Cl,xtb2,312.799,13,22,1,-58.314866490566,-58.027377136707,0.000208011834,-58.089395865101,9.264545254407,9.062034922228,0.001559493728,8.597071866231,0.269424958154,-10.15,-7.511,2.63901248832,2.155,239.870802,0.664 -0.527 0.000,0.02660687,0.003781135,0.003310654
2-0395,pubchemPCH,VZGWPXMIEUHPMN-UHFFFAOYSA-N,c1ccc2c(c1)ccc1c2ccc2c1ccc1c2cccc1Cl,C22H13Cl,r2scan,312.799,13,22,1,-1306.208195507328,-1305.9146023056,0.000202181,-1305.9748825564,7.320916385074,7.1123004804,0.0016733938,6.6133779699,0.2760252802,-5.4496,-2.2879,3.1617,2.04121,302.5178,0.62348 -0.50613 0.00003,0.026357,0.003745,0.003279
2-0395,pubchemPCH,VZGWPXMIEUHPMN-UHFFFAOYSA-N,c1ccc2c(c1)ccc1c2ccc2c1ccc1c2cccc1Cl,C22H13Cl,d4tzvp,312.799,13,22,1,-1307.139962631829,-1306.8463694301,0.000202181,-1306.9066496809,7.220432215603,7.0118163107,0.0016733938,6.5128938015,0.2760252802,-8.0,0.1715,8.1715,1.99956,290.71494,0.59500 -0.51461 0.00004,0.026357,0.003745,0.003279
2-0396,pubchemPCH,WBBSGYWOJUARFG-UHFFFAOYSA-N,c1ccc2-c3c4c(-c2c1)cccc4c1c(c3)ccc2c1ccc(c2)Cl,C24H13Cl,xtb2,336.821,13,24,1,-62.601059987197,-62.300922639091,0.000212164503,-62.364179485633,9.964146008308,9.753708738642,0.001661747315,9.258258775393,0.28137755793,-10.2463,-7.8581,2.388203376809,1.992,257.123628,-0.768 0.146 -0.061,0.02069862,0.003452096,0.002991395
2-0396,pubchemPCH,WBBSGYWOJUARFG-UHFFFAOYSA-N,c1ccc2-c3c4c(-c2c1)cccc4c1c(c3)ccc2c1ccc(c2)Cl,C24H13Cl,r2scan,336.821,13,24,1,-1382.404119045618,-1382.0972620437,0.0002058422,-1382.1586338988,7.852407748828,7.6352490049,0.001783145,7.1036041789,0.2887020783,-5.5143,-2.8147,2.6996,1.84494,334.87686,-0.70766 0.14318 -0.07457,0.020622,0.003407,0.002951
2-0396,pubchemPCH,WBBSGYWOJUARFG-UHFFFAOYSA-N,c1ccc2-c3c4c(-c2c1)cccc4c1c(c3)ccc2c1ccc(c2)Cl,C24H13Cl,d4tzvp,336.821,13,24,1,-1383.407889642499,-1383.1010326406,0.0002058422,-1383.1624044957,7.742737310707,7.5255785666,0.001783145,6.9939337419,0.2887020783,-8.0333,-0.497,7.5363,2.01601,317.18932,-0.77326 0.15778 -0.07906,0.020622,0.003407,0.002951
2-0397,pubchemPCH,WBMLFMGHAORUTE-UHFFFAOYSA-N,Clc1c(Cl)c2ccc3c4c2c(c1)ccc4ccc3,C16H8Cl2,xtb2,271.146,8,16,2,-47.480592173549,-47.284814884732,0.000181259546,-47.338857418478,6.674937850299,6.540534299362,0.001118179544,6.207149067636,0.181509172726,-10.2744,-7.9621,2.31236942267,3.432,189.68328,1.316 0.300 -0.000,0.02519689,0.008367648,0.006281591
2-0397,pubchemPCH,WBMLFMGHAORUTE-UHFFFAOYSA-N,Clc1c(Cl)c2ccc3c4c2c(c1)ccc4ccc3,C16H8Cl2,r2scan,271.146,8,16,2,-1534.787963350627,-1534.5880573727,0.0001767321,-1534.6407500538,5.266345891953,5.1278124063,0.0012009097,4.7697610706,0.1860181564,-5.4561,-2.6922,2.7639,3.14632,225.93682,1.20824 0.26902 -0.00007,0.024815,0.008301,0.00622
2-0397,pubchemPCH,WBMLFMGHAORUTE-UHFFFAOYSA-N,Clc1c(Cl)c2ccc3c4c2c(c1)ccc4ccc3,C16H8Cl2,d4tzvp,271.146,8,16,2,-1535.506677995725,-1535.3067720178,0.0001767321,-1535.3594646989002,5.196855473317,5.0583219876,0.0012009097,4.7002706527,0.1860181564,-7.9155,-0.3667,7.5488,3.24262,220.09512,1.24184 0.29203 -0.00008,0.024815,0.008301,0.00622
2-0398,pubchemPCH,WCKKMXISESGIHP-UHFFFAOYSA-N,Clc1c(Cl)c(Cl)c(c2c1c(Cl)c1c(c2)cc2c(c1Cl)cccc2)Cl,C18H6Cl6,xtb2,434.964,6,18,6,-68.930685224182,-68.733582901284,0.000237696057,-68.804451980792,7.39530314623,7.269016674732,0.001318642923,6.875863286534,0.175353857971,-10.2343,-8.8644,1.369986900795,4.48,262.263695,1.586 0.769 0.015,0.009885247,0.003217367,0.002450808
2-0398,pubchemPCH,WCKKMXISESGIHP-UHFFFAOYSA-N,Clc1c(Cl)c(Cl)c(c2c1c(Cl)c1c(c2)cc2c(c1Cl)cccc2)Cl,C18H6Cl6,r2scan,434.964,6,18,6,-3450.439673572027,-3450.2379657755,0.0002280822,-3450.3059684925,5.792194156375,5.6613007739,0.001417923,5.2385468661,0.1807787414,-5.2301,-3.7171,1.513,4.10672,343.67585,1.36811 0.85939 -0.01044,0.009719,0.003193,0.002447
2-0398,pubchemPCH,WCKKMXISESGIHP-UHFFFAOYSA-N,Clc1c(Cl)c(Cl)c(c2c1c(Cl)c1c(c2)cc2c(c1Cl)cccc2)Cl,C18H6Cl6,d4tzvp,434.964,6,18,6,-3451.384639832934,-3451.1829320364,0.0002280822,-3451.2509347534,5.73003249132,5.599139109,0.001417923,5.1763852018,0.1807787414,-7.6382,-1.5321,6.1061,4.32569,327.00019,1.41727 0.94205 -0.00982,0.009719,0.003193,0.002447
2-0399,pubchemPCH,WDCWBWAAUQXGPP-UHFFFAOYSA-N,Clc1c(Cl)cc2c(c1Cl)cc1c(c2)c(Cl)ccc1,C14H6Cl4,xtb2,316.014,6,14,4,-51.265276617481,-51.099297134356,0.00019851972,-51.158485788916,5.868130294911,5.758803492906,0.001028321906,5.452209316072,0.149743692569,-10.4972,-8.4335,2.06370826662,2.848,197.061649,-1.081 -0.295 0.000,0.01806982,0.005406895,0.004161639
2-0399,pubchemPCH,WDCWBWAAUQXGPP-UHFFFAOYSA-N,Clc1c(Cl)cc2c(c1Cl)cc1c(c2)c(Cl)ccc1,C14H6Cl4,r2scan,316.014,6,14,4,-2377.716582370718,-2377.5469222193,0.0001921952,-2377.6042252081,4.625953881044,4.5129452609,0.0011058578,4.1832336213,0.1539543849,-5.5585,-3.176,2.3825,2.59434,238.42854,-0.96570 -0.33045 0.00003,0.017696,0.005368,0.004119
2-0399,pubchemPCH,WDCWBWAAUQXGPP-UHFFFAOYSA-N,Clc1c(Cl)cc2c(c1Cl)cc1c(c2)c(Cl)ccc1,C14H6Cl4,d4tzvp,316.014,6,14,4,-2378.433203109373,-2378.263542958,0.0001921952,-2378.3208459468,4.574450578051,4.461441958,0.0011058578,4.131730319,0.1539543849,-8.1207,-0.8026,7.3181,2.77878,229.49268,-1.04119 -0.33331 0.00003,0.017696,0.005368,0.004119
2-0400,pubchemPCH,WHPBOYBRFUIFMF-UHFFFAOYSA-N,Clc1c(Cl)cc2c(c1)cc1c(c2)cccc1Cl,C14H7Cl3,xtb2,281.569,7,14,3,-47.218490377384,-47.044320075194,0.000187721326,-47.100289188624,5.910386425839,5.792868804769,0.001022215904,5.488095132466,0.159308191099,-10.3966,-8.2694,2.127235775518,3.073,184.537759,-0.973 -0.718 0.000,0.02656698,0.005695368,0.004689948
2-0400,pubchemPCH,WHPBOYBRFUIFMF-UHFFFAOYSA-N,Clc1c(Cl)cc2c(c1)cc1c(c2)cccc1Cl,C14H7Cl3,r2scan,281.569,7,14,3,-1918.140021795509,-1917.9620746619,0.0001825832,-1918.0165118568,4.666114908603,4.5448193063,0.001098558,4.2172841385,0.1635339029,-5.4747,-3.0513,2.4234,2.893,225.30293,-0.90049 -0.69609 0.00006,0.025996,0.005654,0.004644
2-0400,pubchemPCH,WHPBOYBRFUIFMF-UHFFFAOYSA-N,Clc1c(Cl)cc2c(c1)cc1c(c2)cccc1Cl,C14H7Cl3,d4tzvp,281.569,7,14,3,-1918.819857359312,-1918.6419102257,0.0001825832,-1918.6963474206,4.60838079023,4.4870851879,0.001098558,4.1595500208,0.1635339029,-8.0346,-0.6562,7.3784,3.0816,217.26845,-0.97848 -0.71583 0.00006,0.025996,0.005654,0.004644
2-0401,pubchemPCH,WHQOJMWBCRYTAE-UHFFFAOYSA-N,c1cc(Cl)c2c(c1)ccc1c2cccc1Cl,C14H8Cl2,xtb2,247.124,8,14,2,-43.168711426105,-42.985845300828,0.000176106648,-43.038351497938,5.949649845585,5.823436401428,0.001016926186,5.520239858466,0.169394804773,-10.4997,-7.5504,2.949254030788,1.61,172.089131,-0.561 0.209 0.207,0.02680611,0.01047383,0.007641821