id,subset,key,smiles,formula,level,mwt,nH,nC,nCl,E,H,S,G,dE,dH,dS,dG,zpe,homo,lumo,gap,Mu,alpha,tMu,rotA,rotB,rotC
3-0117,monoCl,CJXPWCXRPGZOBY-UHFFFAOYSA-N,c1ccc2-c3c(-c2c1)cc1-c2ccccc2-c2c1c3cc(Cl)c2,C22H11Cl,xtb2,310.783,11,22,1,-57.225122060553,-56.961305968556,0.000204064148,-57.022147694262,8.961766352266,8.778208225189,0.001480565364,8.336777660694,0.246410122234,-9.8897,-8.2464,1.64336331723,1.984,231.51216,-0.168 -0.762 -0.000,0.01124571,0.005990131,0.003908325
3-0117,monoCl,CJXPWCXRPGZOBY-UHFFFAOYSA-N,c1ccc2-c3c(-c2c1)cc1-c2ccccc2-c2c1c3cc(Cl)c2,C22H11Cl,r2scan,310.783,11,22,1,-1304.916837891637,-1304.6482266791,0.0001997777,-1304.7077903879,7.024102140753,6.8357472643,0.0015884933,6.3621378372,0.2514558598,-5.0068,-3.1792,1.8276,1.80803,311.32536,-0.11981 -0.70116 -0.00002,0.011163,0.005917,0.003867
3-0117,monoCl,CJXPWCXRPGZOBY-UHFFFAOYSA-N,c1ccc2-c3c(-c2c1)cc1-c2ccccc2-c2c1c3cc(Cl)c2,C22H11Cl,d4tzvp,310.783,11,22,1,-1305.83380894291,-1305.5651977304,0.0001997777,-1305.6247614392005,6.924337581364,6.7359827048,0.0015884933,6.2623732788,0.2514558598,-7.5057,-0.8243,6.6814,1.84244,293.48278,-0.01904 -0.72461 -0.00002,0.011163,0.005917,0.003867
3-0118,monoCl,CKHSLXQBLPOPJY-UHFFFAOYSA-N,c1ccc2c(c1)cc1c3c2-c2c(Cl)ccc4c2c3c(cc1)cc4,C22H11Cl,xtb2,310.783,11,22,1,-57.287916182083,-57.023124775592,0.000197874854,-57.082121163166,9.024560473796,8.840027032225,0.001486754658,8.396751129598,0.24798054192,-10.0071,-8.1523,1.854778866564,1.679,234.439577,0.346 0.563 -0.000,0.01175747,0.008607182,0.004969332
3-0118,monoCl,CKHSLXQBLPOPJY-UHFFFAOYSA-N,c1ccc2c(c1)cc1c3c2-c2c(Cl)ccc4c2c3c(cc1)cc4,C22H11Cl,r2scan,310.783,11,22,1,-1304.987576258981,-1304.717835231,0.0001958264,-1304.7762208661,7.094840508097,6.9053558162,0.0015924446,6.4305683154,0.2529926167,-5.2691,-3.11,2.1591,1.52349,291.39596,0.29033 0.52436 -0.00014,0.011618,0.008491,0.004906
3-0118,monoCl,CKHSLXQBLPOPJY-UHFFFAOYSA-N,c1ccc2c(c1)cc1c3c2-c2c(Cl)ccc4c2c3c(cc1)cc4,C22H11Cl,d4tzvp,310.783,11,22,1,-1305.90348310784,-1305.6337420798,0.0001958264,-1305.6921277149,6.994011746294,6.8045270542,0.0015924446,6.3297395545,0.2529926167,-7.7627,-0.8653,6.8974,1.62134,282.16356,0.31958 0.55204 -0.00012,0.011618,0.008491,0.004906
3-0119,monoCl,CKJXHOITQILRQJ-UHFFFAOYSA-N,c1ccc2c(c1)cc1c(c2)c(Cl)c2c3c1ccc1c3c(cc2)ccc1,C24H13Cl,xtb2,336.821,13,24,1,-62.615529991746,-62.315484531411,0.000211578951,-62.378566795541,9.978616012857,9.768270630962,0.001662332867,9.272646085301,0.281280542205,-9.7075,-8.0741,1.633344793881,1.798,257.287391,-0.076 0.704 -0.000,0.01507146,0.004516203,0.003474931
3-0119,monoCl,CKJXHOITQILRQJ-UHFFFAOYSA-N,c1ccc2c(c1)cc1c(c2)c(Cl)c2c3c1ccc1c3c(cc2)ccc1,C24H13Cl,r2scan,336.821,13,24,1,-1382.421122101408,-1382.1149993948,0.0002064989,-1382.1765670511,7.869410804618,7.652986356,0.0017824883,7.1215373312,0.2877114875,-4.8782,-2.9956,1.8826,1.70874,353.7644,-0.11392 0.66253 0.00000,0.014831,0.004489,0.003446
3-0119,monoCl,CKJXHOITQILRQJ-UHFFFAOYSA-N,c1ccc2c(c1)cc1c(c2)c(Cl)c2c3c1ccc1c3c(cc2)ccc1,C24H13Cl,d4tzvp,336.821,13,24,1,-1383.419659816013,-1383.1135371094,0.0002064989,-1383.1751047657,7.754507484221,7.5380830354,0.0017824883,7.0066340119,0.2877114875,-7.1768,-0.8052,6.3716,1.75534,338.57776,-0.13256 0.67775 -0.00001,0.014831,0.004489,0.003446
3-0120,monoCl,CLELRKZDAALGIZ-UHFFFAOYSA-N,c1ccc2-c3c4c(-c2c1)c1ccccc1c(c4ccc3)Cl,C20H11Cl,xtb2,286.761,11,20,1,-53.000859512457,-52.749034674736,0.000193743266,-52.80679922947,8.3240965469,8.147808617339,0.00138447999,7.735025907272,0.235699440556,-9.9799,-8.2118,1.768060401641,1.216,217.240825,-0.311 -0.363 0.000,0.01514063,0.008826292,0.005575836
3-0120,monoCl,CLELRKZDAALGIZ-UHFFFAOYSA-N,c1ccc2-c3c4c(-c2c1)c1ccccc1c(c4ccc3)Cl,C20H11Cl,r2scan,286.761,11,20,1,-1228.788327736682,-1228.531336433,0.0001894388,-1228.5878176082,6.560024160334,6.3785682318,0.0014854198,5.9356901909,0.2411850759,-5.222,-3.1705,2.0515,1.01383,268.15327,-0.25033 -0.31053 0.00000,0.015,0.008741,0.005523
3-0120,monoCl,CLELRKZDAALGIZ-UHFFFAOYSA-N,c1ccc2-c3c4c(-c2c1)c1ccccc1c(c4ccc3)Cl,C20H11Cl,d4tzvp,286.761,11,20,1,-1229.631195782984,-1229.3742044793,0.0001894388,-1229.4306856545002,6.467346337004,6.2858904083,0.0014854198,5.8430123685,0.2411850759,-7.6686,-0.9149,6.7537,1.17435,261.1481,-0.31294 -0.33990 -0.00000,0.015,0.008741,0.005523
3-0121,monoCl,CLNALKLQUIDHGA-UHFFFAOYSA-N,c1cc2cc3ccccc3c3-c4c(-c(c1)c23)c1cc(Cl)ccc1cc4,C24H13Cl,xtb2,336.821,13,24,1,-62.594153079344,-62.294471086054,0.000215344545,-62.358676062021,9.957239100455,9.747257185605,0.001658567273,9.252755351781,0.280586721274,-10.0306,-8.2772,1.7534310619,2.822,257.118875,-1.051 -0.357 -0.001,0.01523627,0.004148853,0.003260905
3-0121,monoCl,CLNALKLQUIDHGA-UHFFFAOYSA-N,c1cc2cc3ccccc3c3-c4c(-c(c1)c23)c1cc(Cl)ccc1cc4,C24H13Cl,r2scan,336.821,13,24,1,-1382.397502895718,-1382.0915650967,0.0002095066,-1382.1540294785,7.845791598928,7.6295520579,0.0017794806,7.0989997586,0.2872795901,-5.2603,-3.2353,2.025,2.68185,335.30388,-0.99162 -0.36045 -0.00033,0.015088,0.004117,0.003234
3-0121,monoCl,CLNALKLQUIDHGA-UHFFFAOYSA-N,c1cc2cc3ccccc3c3-c4c(-c(c1)c23)c1cc(Cl)ccc1cc4,C24H13Cl,d4tzvp,336.821,13,24,1,-1383.397755779105,-1383.0918179801,0.0002095066,-1383.1542823619,7.732603447313,7.5163639061,0.0017794806,6.9858116081,0.2872795901,-7.7156,-0.9965,6.7191,2.53896,321.4107,-0.92977 -0.36509 -0.00035,0.015088,0.004117,0.003234
3-0122,monoCl,CMJSRPLJBNVSRZ-UHFFFAOYSA-N,c1ccc2c(c1)c1c3ccccc3ccc1c1c2cc(Cl)cc1,C22H13Cl,xtb2,312.799,13,22,1,-58.309684531736,-58.022203279028,0.000206068304,-58.083642543823,9.259363295577,9.056861064549,0.001561437258,8.591318544953,0.269640255724,-10.1155,-7.4833,2.632230724279,2.326,239.839183,0.884 0.130 -0.197,0.01526186,0.005353399,0.004112444
3-0122,monoCl,CMJSRPLJBNVSRZ-UHFFFAOYSA-N,c1ccc2c(c1)c1c3ccccc3ccc1c1c2cc(Cl)cc1,C22H13Cl,r2scan,312.799,13,22,1,-1306.199938840763,-1305.9057781565,0.0001995479,-1305.9652733649,7.312659718509,7.1034763313,0.0016760269,6.6037687784,0.2769462151,-5.383,-2.335,3.048,2.12768,292.39431,0.81529 0.09943 -0.16161,0.015154,0.005287,0.004046
3-0122,monoCl,CMJSRPLJBNVSRZ-UHFFFAOYSA-N,c1ccc2c(c1)c1c3ccccc3ccc1c1c2cc(Cl)cc1,C22H13Cl,d4tzvp,312.799,13,22,1,-1307.13201918123,-1306.8378584968998,0.0001995479,-1306.8973537052998,7.212488765004,7.0033053775,0.0016760269,6.5035978259,0.2769462151,-7.9184,0.0782,7.9966,2.14515,281.40226,0.82210 0.09275 -0.16674,0.015154,0.005287,0.004046
3-0123,monoCl,CNATXVURCNYMGT-UHFFFAOYSA-N,c1ccc2c(c1)cc(c1c2ccc2c1c1ccccc1c1c2cccc1)Cl,C26H15Cl,xtb2,362.859,15,26,1,-67.901872829328,-67.566465075858,0.000225399108,-67.633667819967,10.891400579837,10.655135018327,0.001837795016,10.107196433055,0.314697771573,-10.1043,-7.5024,2.601873535387,1.636,279.913863,0.173 -0.459 0.416,0.01160899,0.004404,0.003452732
3-0123,monoCl,CNATXVURCNYMGT-UHFFFAOYSA-N,c1ccc2c(c1)cc(c1c2ccc2c1c1ccccc1c1c2cccc1)Cl,C26H15Cl,r2scan,362.859,15,26,1,-1459.800819574583,-1459.45770207,0.0002170273,-1459.52240876,8.590132731887,8.3461554072,0.0019726761,7.7580018709,0.3231628727,-5.3939,-2.4127,2.9812,1.5066,350.53541,0.23729 -0.40097 0.36639,0.011404,0.004328,0.00341
3-0123,monoCl,CNATXVURCNYMGT-UHFFFAOYSA-N,c1ccc2c(c1)cc(c1c2ccc2c1c1ccccc1c1c2cccc1)Cl,C26H15Cl,d4tzvp,362.859,15,26,1,-1460.893144424484,-1460.5500269199,0.0002170273,-1460.6147336099,8.472311122446,8.2283337975,0.0019726761,7.6401802627,0.3231628727,-7.938,0.0059,7.9439,1.59597,335.34784,0.29352 -0.41604 0.36742,0.011404,0.004328,0.00341
3-0124,monoCl,CNFLAXWYALQWGL-UHFFFAOYSA-N,c1ccc2c(c1)ccc1c2cc2c(c1)cc(c1c2cccc1)Cl,C22H13Cl,xtb2,312.799,13,22,1,-58.315499366556,-58.028257805902,0.000207546377,-58.090137758286,9.265178130397,9.062915591423,0.001559959185,8.597813759416,0.269237863453,-10.1507,-7.5969,2.553833495265,2.195,239.893878,-0.707 -0.496 -0.000,0.01861511,0.004439694,0.003584737
3-0124,monoCl,CNFLAXWYALQWGL-UHFFFAOYSA-N,c1ccc2c(c1)ccc1c2cc2c(c1)cc(c1c2cccc1)Cl,C22H13Cl,r2scan,312.799,13,22,1,-1306.207879939354,-1305.9146024426,0.000201957,-1305.974815922,7.3206008171,7.1123006174,0.0016736178,6.6133113355,0.2757541891,-5.3758,-2.4946,2.8812,2.03506,307.10116,-0.62533 -0.49998 -0.00001,0.018377,0.004408,0.003555
3-0124,monoCl,CNFLAXWYALQWGL-UHFFFAOYSA-N,c1ccc2c(c1)ccc1c2cc2c(c1)cc(c1c2cccc1)Cl,C22H13Cl,d4tzvp,312.799,13,22,1,-1307.138658945222,-1306.8453814483998,0.000201957,-1306.9055949278,7.219128528996,7.010828329,0.0016736178,6.5118390484,0.2757541891,-7.9221,-0.0857,7.8364,2.03341,292.9378,-0.64334 -0.47549 -0.00002,0.018377,0.004408,0.003555
3-0125,monoCl,COPADWUREBEULQ-UHFFFAOYSA-N,c1c2cc3cc4ccc(cc4cc3cc2c2c(c1)ccc1c2cccc1)Cl,C26H15Cl,xtb2,362.859,15,26,1,-67.895675350661,-67.56096885211,0.000225749402,-67.628276036376,10.88520310117,10.649638794579,0.001837444722,10.101804649464,0.314044635401,-9.7269,-8.0768,1.650120558069,2.554,279.82678,0.785 -0.614 -0.127,0.0130877,0.002759895,0.002313163
3-0125,monoCl,COPADWUREBEULQ-UHFFFAOYSA-N,c1c2cc3cc4ccc(cc4cc3cc2c2c(c1)ccc1c2cccc1)Cl,C26H15Cl,r2scan,362.859,15,26,1,-1459.800477651707,-1459.4580895109,0.0002180791,-1459.5231097991,8.589790809011,8.3465428481,0.0019716243,7.75870291,0.3224377054,-4.8566,-3.0422,1.8144,2.33325,389.34858,0.69918 -0.58162 -0.12449,0.012976,0.002723,0.002281
3-0125,monoCl,COPADWUREBEULQ-UHFFFAOYSA-N,c1c2cc3cc4ccc(cc4cc3cc2c2c(c1)ccc1c2cccc1)Cl,C26H15Cl,d4tzvp,362.859,15,26,1,-1460.88351978967,-1460.5411316489,0.0002180791,-1460.6061519371,8.462686487632,8.2194385265,0.0019716243,7.6315985899,0.3224377054,-7.2269,-0.7803,6.4466,2.34858,366.65614,0.69490 -0.59648 -0.12276,0.012976,0.002723,0.002281
3-0126,monoCl,CPGIFICTMDTDMA-UHFFFAOYSA-N,c1ccc2c(c1)c1c3ccccc3ccc1c1c2ccc2c1c(Cl)ccc2,C26H15Cl,xtb2,362.859,15,26,1,-67.892339861197,-67.557073411788,0.00022378692,-67.623795481907,10.881867611706,10.645743354257,0.001839407204,10.097324094995,0.314709341296,-9.9144,-7.5261,2.388244313503,1.44,279.887463,-0.275 0.405 -0.286,0.009114134,0.005746015,0.003729175
3-0126,monoCl,CPGIFICTMDTDMA-UHFFFAOYSA-N,c1ccc2c(c1)c1c3ccccc3ccc1c1c2ccc2c1c(Cl)ccc2,C26H15Cl,r2scan,362.859,15,26,1,-1459.789661391456,-1459.4464924116,0.000215555,-1459.5107601291,8.57897454876,8.3349457488,0.0019741484,7.74635324,0.3233884042,-5.1705,-2.4549,2.7156,1.34839,347.96711,-0.35648 0.30155 -0.25181,0.009001,0.005587,0.003662
3-0126,monoCl,CPGIFICTMDTDMA-UHFFFAOYSA-N,c1ccc2c(c1)c1c3ccccc3ccc1c1c2ccc2c1c(Cl)ccc2,C26H15Cl,d4tzvp,362.859,15,26,1,-1460.879938755752,-1460.5367697759,0.000215555,-1460.6010374934,8.459105453714,8.2150766535,0.0019741484,7.6264841462,0.3233884042,-7.6547,-0.0853,7.5694,1.47928,333.37107,-0.41788 0.30903 -0.26188,0.009001,0.005587,0.003662
3-0127,monoCl,CQIPAGJKOBXWDX-UHFFFAOYSA-N,c1ccc2c(c1)c1cc3ccc4c(c3cc1cc2)ccc1c4cc(cc1)Cl,C26H15Cl,xtb2,362.859,15,26,1,-67.911168660272,-67.575864928966,0.000228179422,-67.643896623582,10.900696410781,10.664534871435,0.001835014702,10.11742523667,0.314396469561,-9.997,-7.7141,2.28296063743,2.411,279.845072,-0.766 -0.560 0.000,0.02140706,0.002291683,0.002070076
3-0127,monoCl,CQIPAGJKOBXWDX-UHFFFAOYSA-N,c1ccc2c(c1)c1cc3ccc4c(c3cc1cc2)ccc1c4cc(cc1)Cl,C26H15Cl,r2scan,362.859,15,26,1,-1459.81940395947,-1459.4770569893,0.0002211596,-1459.5429957322,8.608717116774,8.3655103265,0.0019685438,7.7785888431,0.3220137198,-5.229,-2.5884,2.6406,2.23967,383.33785,-0.69988 -0.53532 0.00006,0.021161,0.002275,0.002054
3-0127,monoCl,CQIPAGJKOBXWDX-UHFFFAOYSA-N,c1ccc2c(c1)c1cc3ccc4c(c3cc1cc2)ccc1c4cc(cc1)Cl,C26H15Cl,d4tzvp,362.859,15,26,1,-1460.908620415902,-1460.5662734457,0.0002211596,-1460.6322121886,8.487787113864,8.2445803233,0.0019685438,7.6576588414,0.3220137198,-7.6994,-0.2193,7.4801,2.23196,361.05072,-0.68391 -0.55075 0.00007,0.021161,0.002275,0.002054
3-0128,monoCl,CRRRIYIZPLNWMJ-UHFFFAOYSA-N,c1ccc2c(c1)cc1c(c2)c2c1c(Cl)c1c(c2)c2c1cccc2,C22H11Cl,xtb2,310.783,11,22,1,-57.162991015093,-56.899760415263,0.000207390703,-56.961593953483,8.899635306806,8.716662671896,0.001477238809,8.276223919915,0.245431363025,-9.8425,-7.9203,1.922266546676,1.604,228.118961,-0.075 0.626 -0.000,0.02569955,0.003751383,0.003273542
3-0128,monoCl,CRRRIYIZPLNWMJ-UHFFFAOYSA-N,c1ccc2c(c1)cc1c(c2)c2c1c(Cl)c1c(c2)c2c1cccc2,C22H11Cl,r2scan,310.783,11,22,1,-1304.849294684155,-1304.58166151,0.0002030847,-1304.6422112278,6.956558933271,6.7691820952,0.0015851863,6.2965586771,0.2500302521,-4.8987,-2.8523,2.0464,1.67015,341.95096,-0.25511 0.60553 -0.00005,0.025654,0.003705,0.003238
3-0128,monoCl,CRRRIYIZPLNWMJ-UHFFFAOYSA-N,c1ccc2c(c1)cc1c(c2)c2c1c(Cl)c1c(c2)c2c1cccc2,C22H11Cl,d4tzvp,310.783,11,22,1,-1305.764828767104,-1305.4971955929,0.0002030847,-1305.5577453107,6.855357405558,6.6679805673,0.0015851863,6.1953571503,0.2500302521,-7.3832,-0.2844,7.0988,1.70458,313.05618,-0.28619 0.60649 -0.00007,0.025654,0.003705,0.003238
3-0129,monoCl,CSMGIPFRMIJHKV-UHFFFAOYSA-N,c1ccc2-c3c4c(-c2c1)c1ccc2c(c1cc4cc(c3)Cl)cccc2,C24H13Cl,xtb2,336.821,13,24,1,-62.599310388469,-62.299419299307,0.000215503577,-62.363671690929,9.96239640958,9.752205398858,0.001658408241,9.257750980689,0.280799703483,-10.1163,-8.1638,1.952501025788,2.457,257.154274,0.600 0.758 0.000,0.01006351,0.00497283,0.003328213
3-0129,monoCl,CSMGIPFRMIJHKV-UHFFFAOYSA-N,c1ccc2-c3c4c(-c2c1)c1ccc2c(c1cc4cc(c3)Cl)cccc2,C24H13Cl,r2scan,336.821,13,24,1,-1382.402532001433,-1382.0967210132,0.0002103607,-1382.1594400699,7.850820704643,7.6347079744,0.0017786265,7.10441035,0.2870574427,-5.3577,-3.1019,2.2558,2.29372,336.08414,0.59965 0.67435 0.00015,0.009959,0.004934,0.003299
3-0129,monoCl,CSMGIPFRMIJHKV-UHFFFAOYSA-N,c1ccc2-c3c4c(-c2c1)c1ccc2c(c1cc4cc(c3)Cl)cccc2,C24H13Cl,d4tzvp,336.821,13,24,1,-1383.405771214389,-1383.0999602262,0.0002103607,-1383.1626792829,7.740618882597,7.5245061522,0.0017786265,6.9942085291,0.2870574427,-7.8134,-0.8207,6.9927,2.25079,321.03738,0.54539 0.69763 0.00013,0.009959,0.004934,0.003299
3-0130,monoCl,CSZBCGKYGKUASB-UHFFFAOYSA-N,c1ccc2c(c1)c1c(cc2)cc2c(c1)cc1c(c2)c(Cl)cc2c1cccc2,C26H15Cl,xtb2,362.859,15,26,1,-67.906642946589,-67.571583956565,0.000227957719,-67.639549550419,10.896170697098,10.660253899034,0.001835236405,10.113078163507,0.31417326622,-9.8637,-7.9202,1.943575871168,2.093,279.873674,-0.311 -0.762 0.000,0.01292677,0.002904297,0.002371488
3-0130,monoCl,CSZBCGKYGKUASB-UHFFFAOYSA-N,c1ccc2c(c1)c1c(cc2)cc2c(c1)cc1c(c2)c(Cl)cc2c1cccc2,C26H15Cl,r2scan,362.859,15,26,1,-1459.813020416124,-1459.4709454741,0.0002208086,-1459.5367795684,8.602333573428,8.3593988113,0.0019688948,7.7723726793,0.3217405937,-5.0292,-2.8948,2.1344,2.02487,389.52274,-0.28889 -0.74240 0.00010,0.012769,0.002882,0.002351
3-0130,monoCl,CSZBCGKYGKUASB-UHFFFAOYSA-N,c1ccc2c(c1)c1c(cc2)cc2c(c1)cc1c(c2)c(Cl)cc2c1cccc2,C26H15Cl,d4tzvp,362.859,15,26,1,-1460.900366287473,-1460.5582913455,0.0002208086,-1460.6241254398,8.479532985435,8.2365982231,0.0019688948,7.6495720926,0.3217405937,-7.4459,-0.5828,6.8631,1.95044,365.55803,-0.23499 -0.73048 0.00010,0.012769,0.002882,0.002351
3-0131,monoCl,CTPMCLFUYABKOU-UHFFFAOYSA-N,c1cc(Cl)c2c(c1)c1ccc3c(c1cc2)ccc1c3c2ccccc2cc1,C26H15Cl,xtb2,362.859,15,26,1,-67.905116817807,-67.569537035365,0.000225597313,-67.63679887413,10.894644568316,10.658206977834,0.001837596811,10.110327487218,0.314901218391,-10.0763,-7.5216,2.554648332022,2.279,279.818043,-0.792 -0.394 0.146,0.0168718,0.002827985,0.00245756
3-0131,monoCl,CTPMCLFUYABKOU-UHFFFAOYSA-N,c1cc(Cl)c2c(c1)c1ccc3c(c1cc2)ccc1c3c2ccccc2cc1,C26H15Cl,r2scan,362.859,15,26,1,-1459.811172486923,-1459.4678874766,0.000218018,-1459.5328895395,8.600485644227,8.3563408138,0.0019716854,7.7684826504,0.323324839,-5.3732,-2.3892,2.984,2.13943,362.6932,-0.74100 -0.38327 0.11170,0.016862,0.002781,0.002417
3-0131,monoCl,CTPMCLFUYABKOU-UHFFFAOYSA-N,c1cc(Cl)c2c(c1)c1ccc3c(c1cc2)ccc1c3c2ccccc2cc1,C26H15Cl,d4tzvp,362.859,15,26,1,-1460.90116814922,-1460.5578831389,0.000218018,-1460.6228852018,8.480334847182,8.2361900165,0.0019716854,7.6483318546,0.323324839,-7.891,-0.0006,7.8904,2.07781,345.25374,-0.70868 -0.38995 0.11810,0.016862,0.002781,0.002417
3-0132,monoCl,CUKCTCSPXPBSSM-UHFFFAOYSA-N,c1ccc2c(c1)c(Cl)c1c3c2c2cccc4c2c(c3ccc1)ccc4,C24H13Cl,xtb2,336.821,13,24,1,-62.604766304467,-62.304574774748,0.000209965333,-62.36717593892,9.967852325578,9.757360874299,0.001663946485,9.26125522868,0.281579827098,-9.5811,-8.164,1.417155419077,2.041,257.264344,0.643 -0.457 -0.151,0.01184505,0.006111676,0.004158446
3-0132,monoCl,CUKCTCSPXPBSSM-UHFFFAOYSA-N,c1ccc2c(c1)c(Cl)c1c3c2c2cccc4c2c(c3ccc1)ccc4,C24H13Cl,r2scan,336.821,13,24,1,-1382.405051397248,-1382.0978584165,0.0002031567,-1382.1584295875,7.853340100458,7.6358453777,0.0017858305,7.1033998676,0.2892544525,-4.7226,-3.1283,1.5943,1.95881,334.85033,0.62487 -0.43162 -0.13083,0.011759,0.006027,0.004106
3-0132,monoCl,CUKCTCSPXPBSSM-UHFFFAOYSA-N,c1ccc2c(c1)c(Cl)c1c3c2c2cccc4c2c(c3ccc1)ccc4,C24H13Cl,d4tzvp,336.821,13,24,1,-1383.403661093968,-1383.0964681133,0.0002031567,-1383.1570392843,7.738508762176,7.5210140393,0.0017858305,6.9885685305,0.2892544525,-6.9895,-0.9769,6.0126,2.00746,322.56541,0.64138 -0.44263 -0.12831,0.011759,0.006027,0.004106
3-0133,monoCl,CVESGONZLMVCQY-UHFFFAOYSA-N,c1ccc2c(c1)cc1c3c2ccc2c3c(cc1)cc1c2cc(Cl)cc1,C24H13Cl,xtb2,336.821,13,24,1,-62.620736788198,-62.320516808649,0.000212032618,-62.383734333654,9.983822809309,9.7733029082,0.0016618792,9.277813623414,0.281461440357,-9.8342,-7.9256,1.908547508409,2.382,257.241149,-0.700 0.623 -0.000,0.01702899,0.003691415,0.003033776
3-0133,monoCl,CVESGONZLMVCQY-UHFFFAOYSA-N,c1ccc2c(c1)cc1c3c2ccc2c3c(cc1)cc1c2cc(Cl)cc1,C24H13Cl,r2scan,336.821,13,24,1,-1382.428480902517,-1382.1221687188,0.0002067003,-1382.1837964105,7.876769605727,7.66015568,0.0017822869,7.1287666906,0.2879576406,-5.0156,-2.7269,2.2887,2.1195,354.41537,-0.60715 0.57157 -0.00000,0.016853,0.003664,0.00301
3-0133,monoCl,CVESGONZLMVCQY-UHFFFAOYSA-N,c1ccc2c(c1)cc1c3c2ccc2c3c(cc1)cc1c2cc(Cl)cc1,C24H13Cl,d4tzvp,336.821,13,24,1,-1383.428488232403,-1383.1221760487,0.0002067003,-1383.1838037404,7.763335900611,7.5467219747,0.0017822869,7.0153329866,0.2879576406,-7.3292,-0.4911,6.8381,2.18015,336.97117,-0.60959 0.60339 -0.00002,0.016853,0.003664,0.00301
3-0134,monoCl,CWKHRLOPQAKGNI-UHFFFAOYSA-N,c1ccc2c(c1Cl)cc1c(c2)c2ccccc2c2c1c1ccccc1cc2,C26H15Cl,xtb2,362.859,15,26,1,-67.903588650291,-67.56809271104,0.000225955599,-67.635461372759,10.8931164008,10.656762653509,0.001837238525,10.108989985847,0.314786707939,-9.9184,-7.6664,2.252055107047,1.756,279.829992,-0.023 -0.674 0.150,0.00737811,0.00571434,0.003327729
3-0134,monoCl,CWKHRLOPQAKGNI-UHFFFAOYSA-N,c1ccc2c(c1Cl)cc1c(c2)c2ccccc2c2c1c1ccccc1cc2,C26H15Cl,r2scan,362.859,15,26,1,-1459.807856714182,-1459.4645582032,0.0002176171,-1459.5294407507,8.597169871486,8.3530115404,0.0019720863,7.7650338616,0.3233297984,-5.1472,-2.6183,2.5289,1.63883,351.9504,-0.02528 -0.62629 0.15109,0.007279,0.005643,0.003272
3-0134,monoCl,CWKHRLOPQAKGNI-UHFFFAOYSA-N,c1ccc2c(c1Cl)cc1c(c2)c2ccccc2c2c1c1ccccc1cc2,C26H15Cl,d4tzvp,362.859,15,26,1,-1460.897925574413,-1460.5546270634002,0.0002176171,-1460.6195096109,8.477092272375,8.232933941,0.0019720863,7.6449562637,0.3233297984,-7.6239,-0.246,7.3779,1.65171,336.91419,-0.07577 -0.62846 0.14685,0.007279,0.005643,0.003272
3-0135,monoCl,CWKKVLBMLIDEEE-UHFFFAOYSA-N,Clc1ccc2c(c1)ccc1c2ccc2c1cc1c(c2)ccc2c1cccc2,C26H15Cl,xtb2,362.859,15,26,1,-67.910607001984,-67.575292663757,0.000228649583,-67.643464536782,10.900134752493,10.663962606226,0.001834544541,10.11699314987,0.314369262669,-10.0253,-7.7123,2.313027600918,2.556,279.846703,-0.949 -0.331 -0.000,0.01823408,0.002393765,0.00211598
3-0135,monoCl,CWKKVLBMLIDEEE-UHFFFAOYSA-N,Clc1ccc2c(c1)ccc1c2ccc2c1cc1c(c2)ccc2c1cccc2,C26H15Cl,r2scan,362.859,15,26,1,-1459.818939629757,-1459.4766691026,0.0002213433,-1459.5426625928,8.608252787061,8.3651224398,0.0019683601,7.7782557037,0.3218925816,-5.2486,-2.5893,2.6593,2.31089,380.00237,-0.86159 -0.29022 -0.00003,0.018034,0.002377,0.0021