id,subset,key,smiles,formula,level,mwt,nH,nC,nCl,E,H,S,G,dE,dH,dS,dG,zpe,homo,lumo,gap,Mu,alpha,tMu,rotA,rotB,rotC
1-0096,pubchemPAH,TUAHORSUHVUKBD-UHFFFAOYSA-N,c1ccc2c(c1)ccc1c2c2ccccc2cc1,C18H12,d4tzvp,228.294,12,18,0,-693.743235987632,-693.4900404529,0.0001674158,-693.5399554725,5.972284419458,5.7899032987,0.0013771186,5.3793152889,0.2401408075,-7.9402,0.2869,8.2271,0.09249,213.4269,-0.00000 -0.03639 -0.00000,0.026967,0.011902,0.008433
1-0097,pubchemPAH,TUGYIJVAYAHHHM-UHFFFAOYSA-N,c1c2c3c(ccc4c3c(c1)cc1c4cccc1)c1c(c2)cccc1,C24H14,xtb2,302.376,14,24,0,-58.567317996628,-58.258887952956,0.000199377132,-58.318332244758,10.019446388764,9.800716423532,0.00165763029,9.306493951204,0.290976480169,-9.6848,-7.7456,1.939206731171,0.038,245.129046,0.000 -0.015 0.000,0.02222312,0.005009156,0.004087762
1-0097,pubchemPAH,TUGYIJVAYAHHHM-UHFFFAOYSA-N,c1c2c3c(ccc4c3c(c1)cc1c4cccc1)c1c(c2)cccc1,C24H14,r2scan,302.376,14,24,0,-922.845528635894,-922.5307058582,0.000194023,-922.5885538165,7.910538941872,7.6854144222,0.0017780524,7.1552879651,0.2978084629,-4.9133,-2.5949,2.3184,0.10389,331.90079,0.00003 -0.04087 0.00001,0.022014,0.004971,0.004056
1-0097,pubchemPAH,TUGYIJVAYAHHHM-UHFFFAOYSA-N,c1c2c3c(ccc4c3c(c1)cc1c4cccc1)c1c(c2)cccc1,C24H14,d4tzvp,302.376,14,24,0,-923.810777452846,-923.4959546751,0.000194023,-923.5538026334,7.792901083294,7.5677765633,0.0017780524,7.0376501076,0.2978084629,-7.2259,-0.3483,6.8776,0.05492,318.20632,-0.00000 -0.02161 -0.00001,0.022014,0.004971,0.004056
1-0098,pubchemPAH,TUNJIKOIQLBFSB-UHFFFAOYSA-N,c1ccc2c(c1)ccc1c2cc2-c3cccc4c3c(-c2c1)ccc4,C24H14,xtb2,302.376,14,24,0,-58.552664276638,-58.244534077254,0.00020248287,-58.304904344915,10.004792668774,9.78636254783,0.001654524552,9.293066051361,0.290592141302,-10.0122,-7.6858,2.326450808902,0.324,245.027436,-0.126 0.018 0.000,0.02207311,0.004519905,0.003751676
1-0098,pubchemPAH,TUNJIKOIQLBFSB-UHFFFAOYSA-N,c1ccc2c(c1)ccc1c2cc2-c3cccc4c3c(-c2c1)ccc4,C24H14,r2scan,302.376,14,24,0,-922.827320498043,-922.5128366607,0.0001975389,-922.5717328739,7.892330804021,7.6675452247,0.0017745365,7.1384670225,0.2973964557,-5.2719,-2.6462,2.6257,0.43235,321.72838,-0.16715 0.03151 0.00003,0.021896,0.004478,0.003717
1-0098,pubchemPAH,TUNJIKOIQLBFSB-UHFFFAOYSA-N,c1ccc2c(c1)ccc1c2cc2-c3cccc4c3c(-c2c1)ccc4,C24H14,d4tzvp,302.376,14,24,0,-923.795596712639,-923.4811128753,0.0001975389,-923.5400090885,7.777720343087,7.5529347635,0.0017745365,7.0238565627,0.2973964557,-7.7998,-0.2991,7.5007,0.35219,305.02167,-0.13724 0.01909 0.00003,0.021896,0.004478,0.003717
1-0099,pubchemPAH,TXVHTIQJNYSSKO-UHFFFAOYSA-N,c1ccc2c(c1)c1cccc3c1c1c2cccc1cc3,C20H12,xtb2,252.316,12,20,0,-48.975945931522,-48.715287129371,0.000179161414,-48.768704104892,8.38822533699,8.203103442999,0.001382157446,7.79101319938,0.246064416675,-9.985,-7.376,2.608993032996,0.03,205.14087,-0.012 0.000 -0.000,0.01734662,0.01303405,0.007442122
1-0099,pubchemPAH,TXVHTIQJNYSSKO-UHFFFAOYSA-N,c1ccc2c(c1)c1cccc3c1c1c2cccc1cc3,C20H12,r2scan,252.316,12,20,0,-769.238765674618,-768.9732813651,0.0001763959,-769.0258738142,6.627183701038,6.4372347667,0.0014815509,5.9955102654,0.2510185904,-5.255,-2.2399,3.0151,0.08478,240.04343,-0.03336 0.00000 0.00000,0.017206,0.01292,0.007379
1-0099,pubchemPAH,TXVHTIQJNYSSKO-UHFFFAOYSA-N,c1ccc2c(c1)c1cccc3c1c1c2cccc1cc3,C20H12,d4tzvp,252.316,12,20,0,-770.048982162724,-769.7834978532,0.0001763959,-769.8360903023,6.532408678984,6.3424597444,0.0014815509,5.9007352443,0.2510185904,-7.7375,0.1352,7.8727,0.06093,234.89267,-0.02397 0.00001 0.00000,0.017206,0.01292,0.007379
1-0100,pubchemPAH,UFWIBTONFRDIAS-UHFFFAOYSA-N,c1cccc2c1cccc2,C10H8,xtb2,128.174,8,10,0,-25.474386117078,-25.323415475039,0.000128358615,-25.361685596118,4.39356029194,4.285079160741,0.000735176865,4.06588617806,0.142859233564,-10.2687,-7.0186,3.25011273843,0.0,107.841851,-0.000 0.000 -0.000,0.1056056,0.04164716,0.02986819
1-0100,pubchemPAH,UFWIBTONFRDIAS-UHFFFAOYSA-N,c1cccc2c1cccc2,C10H8,r2scan,128.174,8,10,0,-385.793137332688,-385.6386820559,0.0001267791,-385.6764812413,3.492802974528,3.3808363463,0.0007894981,3.1454474311,0.1466194483,-5.5779,-1.8665,3.7114,0.0,112.0526,0.00000 0.00000 -0.00000,0.104367,0.041295,0.029588
1-0100,pubchemPAH,UFWIBTONFRDIAS-UHFFFAOYSA-N,c1cccc2c1cccc2,C10H8,d4tzvp,128.174,8,10,0,-386.210330400044,-386.0558751232,0.0001267791,-386.0936743086,3.441984603494,3.330017975,0.0007894981,3.0946290606,0.1466194483,-8.3403,0.7301,9.0704,1E-05,112.68119,-0.00000 -0.00000 -0.00000,0.104367,0.041295,0.029588
1-0101,pubchemPAH,UFZAKNUHTLXSMY-UHFFFAOYSA-N,c1cc2cc3c(cc2cc1)cc1-c2c4c(-c1c3)cccc4ccc2,C24H14,xtb2,302.376,14,24,0,-58.547090294147,-58.239380545422,0.000200086432,-58.299036315076,9.999218686283,9.781209015998,0.00165692099,9.287198021522,0.290189463061,-9.726,-7.5978,2.128214426954,0.111,245.044137,-0.044 -0.000 -0.000,0.02683909,0.003910001,0.003412812
1-0101,pubchemPAH,UFZAKNUHTLXSMY-UHFFFAOYSA-N,c1cc2cc3c(cc2cc1)cc1-c2c4c(-c1c3)cccc4ccc2,C24H14,r2scan,302.376,14,24,0,-922.821085507437,-922.5069917338,0.0001950062,-922.5651328357,7.886095813415,7.6617002978,0.0017770692,7.1318669843,0.2970452667,-4.8921,-2.5572,2.3349,0.19667,345.318,-0.07737 0.00000 -0.00001,0.026609,0.003877,0.003384
1-0101,pubchemPAH,UFZAKNUHTLXSMY-UHFFFAOYSA-N,c1cc2cc3c(cc2cc1)cc1-c2c4c(-c1c3)cccc4ccc2,C24H14,d4tzvp,302.376,14,24,0,-923.785445253323,-923.4713514797,0.0001950062,-923.5294925816,7.767568883771,7.5431733679,0.0017770692,7.0133400558,0.2970452667,-7.3041,-0.1828,7.1213,0.24722,323.32383,-0.09726 0.00002 -0.00001,0.026609,0.003877,0.003384
1-0102,pubchemPAH,UHOVQNZJYSORNB-UHFFFAOYSA-N,c1ccccc1,C6H6,xtb2,78.114,6,6,0,-15.879640657407,-15.776605391763,0.00010305395,-15.807330927059,2.758965845601,2.684256920517,0.000464792968,2.545678897043,0.097511245221,-10.9533,-6.019,4.934367894193,0.0,67.869889,0.000 0.000 0.000,0.1927673,0.1927673,0.09638365
1-0102,pubchemPAH,UHOVQNZJYSORNB-UHFFFAOYSA-N,c1ccccc1,C6H6,r2scan,78.114,6,6,0,-232.183149051381,-232.0776742252,0.0001022615,-232.1081634889,2.206222413663,2.1290733532,0.0004998871,1.9800319813,0.1001153596,-6.4544,-0.9038,5.5506,0.0,62.59823,-0.00000 -0.00000 -0.00000,0.190636,0.190626,0.095316
1-0102,pubchemPAH,UHOVQNZJYSORNB-UHFFFAOYSA-N,c1ccccc1,C6H6,d4tzvp,78.114,6,6,0,-232.442347093187,-232.336872267,0.0001022615,-232.3673615307,2.175304182449,2.0981551218,0.0004998871,1.9491137505,0.1001153596,-9.5027,1.8525,11.3552,1E-05,64.36454,0.00000 -0.00000 0.00000,0.190636,0.190626,0.095316
1-0103,pubchemPAH,UOYPNWSDSPYOSN-UHFFFAOYSA-N,c1cc2ccc3c(c2c2c1ccc1c2c2ccccc2cc1)cccc3,C26H16,xtb2,328.414,16,26,0,-63.849033111335,-63.505917774393,0.000210990427,-63.568824570227,10.927603232869,10.683630087887,0.001835299301,10.136435600001,0.323901660014,-9.9371,-7.3076,2.629507634924,0.089,267.742579,-0.000 -0.035 0.000,0.009688393,0.008687703,0.005365382
1-0103,pubchemPAH,UOYPNWSDSPYOSN-UHFFFAOYSA-N,c1cc2ccc3c(c2c2c1ccc1c2c2ccccc2cc1)cccc3,C26H16,r2scan,328.414,16,26,0,-1000.219745538282,-999.8684803867,0.0002028642,-999.9289643523,8.625780298354,8.3736553267,0.0019699274,7.7863213317,0.3328506089,-5.2417,-2.3185,2.9232,0.10264,312.35588,0.00000 0.04038 0.00000,0.0096,0.008307,0.005252
1-0103,pubchemPAH,UOYPNWSDSPYOSN-UHFFFAOYSA-N,c1cc2ccc3c(c2c2c1ccc1c2c2ccccc2cc1)cccc3,C26H16,d4tzvp,328.414,16,26,0,-1001.27326833633,-1000.9220031847,0.0002028642,-1000.9824871503,8.499710996532,8.2475860245,0.0019699274,7.6602520311,0.3328506089,-7.8219,0.075,7.8969,0.01847,303.06198,-0.00001 0.00727 0.00000,0.0096,0.008307,0.005252
1-0104,pubchemPAH,UXDAAYMFPFYGMU-UHFFFAOYSA-N,c1ccc2c(c1)cc1c3c2cccc3c2c3c1cccc3ccc2,C24H14,xtb2,302.376,14,24,0,-58.564507685469,-58.255863200779,0.000202286185,-58.316174826732,10.016636077605,9.797691671355,0.001654721237,9.304336533178,0.291107111087,-9.6672,-7.7527,1.91445824479,0.045,245.114563,0.014 0.010 0.002,0.01686999,0.006207093,0.004550708
1-0104,pubchemPAH,UXDAAYMFPFYGMU-UHFFFAOYSA-N,c1ccc2c(c1)cc1c3c2cccc3c2c3c1cccc3ccc2,C24H14,r2scan,302.376,14,24,0,-922.839363182287,-922.5248625945,0.0001985033,-922.5840463459,7.904373488265,7.6795711585,0.0017735721,7.1507804945,0.2971981353,-4.8412,-2.7153,2.1259,0.05706,314.7363,0.01781 0.01309 0.00391,0.016728,0.006149,0.00451
1-0104,pubchemPAH,UXDAAYMFPFYGMU-UHFFFAOYSA-N,c1ccc2c(c1)cc1c3c2cccc3c2c3c1cccc3ccc2,C24H14,d4tzvp,302.376,14,24,0,-923.807505381436,-923.4930047936,0.0001985033,-923.552188545,7.789629011884,7.5648266818,0.0017735721,7.0360360192,0.2971981353,-7.2073,-0.4385,6.7688,0.03563,301.09541,0.01186 0.00678 0.00314,0.016728,0.006149,0.00451
1-0105,pubchemPAH,UXUXNGMSDNTZEC-UHFFFAOYSA-N,c1ccc2c3c1cc1c4cccc5c4c(cc1c3ccc2)ccc5,C24H14,xtb2,302.376,14,24,0,-58.55204381112,-58.244083442485,0.000199578658,-58.303587819417,10.004172203256,9.785911913061,0.001657428764,9.291749525863,0.290462595362,-9.3554,-8.1414,1.213919622612,0.012,245.126111,-0.000 -0.000 -0.005,0.01922517,0.005435942,0.004250889
1-0105,pubchemPAH,UXUXNGMSDNTZEC-UHFFFAOYSA-N,c1ccc2c3c1cc1c4cccc5c4c(cc1c3ccc2)ccc5,C24H14,r2scan,302.376,14,24,0,-922.825753586042,-922.5107972284,0.0001933368,-922.5684405845,7.89076389202,7.6655057924,0.0017787386,7.1351747331,0.2981122565,-4.4785,-3.1116,1.3669,0.04277,356.88151,-0.00012 -0.00004 -0.01683,0.019073,0.005382,0.004226
1-0105,pubchemPAH,UXUXNGMSDNTZEC-UHFFFAOYSA-N,c1ccc2c3c1cc1c4cccc5c4c(cc1c3ccc2)ccc5,C24H14,d4tzvp,302.376,14,24,0,-923.785098226932,-923.4701418693,0.0001933368,-923.5277852254,7.76722185738,7.5419637575,0.0017787386,7.0116326996,0.2981122565,-6.662,-1.0,5.662,0.04304,341.91325,-0.00000 -0.00001 -0.01693,0.019073,0.005382,0.004226
1-0106,pubchemPAH,VEPXTABLWURNHE-UHFFFAOYSA-N,c1ccc2c(c1)c1c3ccccc3ccc1c1c2c2ccccc2cc1,C26H16,xtb2,328.414,16,26,0,-63.847956638998,-63.504207112237,0.000213766234,-63.567941515003,10.926526760532,10.681919425731,0.001832523494,10.135552544777,0.32451283049,-9.9466,-7.2987,2.647883081308,0.086,267.692113,0.000 -0.033 -0.006,0.01410912,0.004956143,0.00394535
1-0106,pubchemPAH,VEPXTABLWURNHE-UHFFFAOYSA-N,c1ccc2c(c1)c1c3ccccc3ccc1c1c2c2ccccc2cc1,C26H16,r2scan,328.414,16,26,0,-1000.221721637019,-999.8698120776,0.0002067718,-999.9314610893,8.627756397091,8.3749870176,0.0019660198,7.7888180687,0.3334034248,-5.2277,-2.2956,2.9321,0.15889,333.68495,-0.00001 -0.05097 -0.03619,0.013959,0.004892,0.003881
1-0106,pubchemPAH,VEPXTABLWURNHE-UHFFFAOYSA-N,c1ccc2c(c1)c1c3ccccc3ccc1c1c2c2ccccc2cc1,C26H16,d4tzvp,328.414,16,26,0,-1001.276849974945,-1000.9249404155,0.0002067718,-1000.9865894272,8.503292635147,8.2505232553,0.0019660198,7.664354308,0.3334034248,-7.7271,0.0839,7.811,0.17686,320.48307,-0.00001 -0.06109 -0.03331,0.013959,0.004892,0.003881
1-0107,pubchemPAH,VLUUZERMKSSBKW-UHFFFAOYSA-N,c1ccc2c(c1)ccc1c2ccc2-c3c4c(-c12)cccc4ccc3,C24H14,xtb2,302.376,14,24,0,-58.548452197855,-58.240208611561,0.000203316841,-58.300827527664,10.000580589991,9.782037082137,0.001653690581,9.28898923411,0.2905892416,-10.0056,-7.8052,2.200419931949,0.472,245.009527,-0.184 0.027 -0.000,0.02330277,0.004703303,0.003913437
1-0107,pubchemPAH,VLUUZERMKSSBKW-UHFFFAOYSA-N,c1ccc2c(c1)ccc1c2ccc2-c3c4c(-c12)cccc4ccc3,C24H14,r2scan,302.376,14,24,0,-922.823001439527,-922.508382638,0.0001986745,-922.5676174472,7.888011745505,7.663091202,0.0017734009,7.1343515958,0.2973932473,-5.3266,-2.781,2.5456,0.42949,313.86755,-0.16893 0.00389 -0.00012,0.023115,0.004661,0.003879
1-0107,pubchemPAH,VLUUZERMKSSBKW-UHFFFAOYSA-N,c1ccc2c(c1)ccc1c2ccc2-c3c4c(-c12)cccc4ccc3,C24H14,d4tzvp,302.376,14,24,0,-923.792216867099,-923.4775980656,0.0001986745,-923.5368328748,7.774340497547,7.5494199538,0.0017734009,7.020680349,0.2973932473,-7.9264,-0.4384,7.488,0.323,299.62634,-0.12706 0.00195 -0.00012,0.023115,0.004661,0.003879
1-0108,pubchemPAH,VOIIGLOUBINLKK-UHFFFAOYSA-N,c1ccc2c(c1)c1cc3ccc4c5c3c(c1cc2)ccc5ccc4,C24H14,xtb2,302.376,14,24,0,-58.56935015786,-58.260853232555,0.000200974989,-58.320773925512,10.021478549996,9.802681703131,0.001656032433,9.308935631958,0.291059349064,-9.7425,-7.6895,2.052970642034,0.034,245.122407,0.013 -0.001 -0.000,0.02359112,0.004879424,0.004043164
1-0108,pubchemPAH,VOIIGLOUBINLKK-UHFFFAOYSA-N,c1ccc2c(c1)c1cc3ccc4c5c3c(c1cc2)ccc5ccc4,C24H14,r2scan,302.376,14,24,0,-922.848060865052,-922.5331238437,0.0001960778,-922.5915844332,7.91307117103,7.6878324077,0.0017759976,7.1583185818,0.2979693954,-4.9873,-2.5429,2.4444,0.03381,324.16453,0.01171 0.00631 -0.00003,0.023364,0.004843,0.004012
1-0108,pubchemPAH,VOIIGLOUBINLKK-UHFFFAOYSA-N,c1ccc2c(c1)c1cc3ccc4c5c3c(c1cc2)ccc5ccc4,C24H14,d4tzvp,302.376,14,24,0,-923.813993707696,-923.4990566863,0.0001960778,-923.5575172758,7.796117338144,7.5708785745,0.0017759976,7.04136475,0.2979693954,-7.3267,-0.2726,7.0541,0.02554,311.50058,0.00687 0.00733 -0.00003,0.023364,0.004843,0.004012
1-0109,pubchemPAH,VXAPIEAEJHPCOD-UHFFFAOYSA-N,c1ccc2c(c1)ccc1-c3c4c(-c21)cccc4cc1c3cccc1,C24H14,xtb2,302.376,14,24,0,-58.540416017773,-58.232522305417,0.00020442902,-58.293472817728,9.992544409909,9.774350775993,0.001652578402,9.281634524174,0.290126030184,-9.8361,-8.1161,1.720002876472,0.765,245.021954,-0.271 0.131 -0.000,0.01617004,0.005959906,0.00435482
1-0109,pubchemPAH,VXAPIEAEJHPCOD-UHFFFAOYSA-N,c1ccc2c(c1)ccc1-c3c4c(-c21)cccc4cc1c3cccc1,C24H14,r2scan,302.376,14,24,0,-922.814181832542,-922.4997501414,0.0001991057,-922.5591135056,7.87919213852,7.6544587054,0.0017729697,7.1258476542,0.2970978908,-5.1021,-3.1106,1.9915,0.80785,315.63073,-0.29489 0.11855 -0.00002,0.016028,0.005912,0.004319
1-0109,pubchemPAH,VXAPIEAEJHPCOD-UHFFFAOYSA-N,c1ccc2c(c1)ccc1-c3c4c(-c21)cccc4cc1c3cccc1,C24H14,d4tzvp,302.376,14,24,0,-923.779743356706,-923.4653116656,0.0001991057,-923.5246750298,7.761866987154,7.5371335538,0.0017729697,7.008522504,0.2970978908,-7.5819,-0.8671,6.7148,0.68083,304.56207,-0.23860 0.12172 -0.00004,0.016028,0.005912,0.004319
1-0110,pubchemPAH,VXRUJZQPKRBJKH-UHFFFAOYSA-N,c1c2ccc3c4c2c2c(c1)ccc1c2c4c(cc3)cc1,C20H10,xtb2,250.3,10,20,0,-47.909984919282,-47.672168040538,0.000163304389,-47.720857244088,8.109229852622,7.942228825278,0.001315138421,7.550120303878,0.224771972967,-10.327,-7.4244,2.902543524642,1.314,199.549228,0.000 -0.000 0.517,0.01719461,0.01719349,0.008924956
1-0110,pubchemPAH,VXRUJZQPKRBJKH-UHFFFAOYSA-N,c1c2ccc3c4c2c2c(c1)ccc1c2c4c(cc3)cc1,C20H10,r2scan,250.3,10,20,0,-767.982774772762,-767.7392844719,0.0001646401,-767.7883719151,6.365736170552,6.1930602839,0.0014060029,5.7738604021,0.2310515856,-5.7419,-2.412,3.3299,2.35113,228.00298,0.00020 0.00001 0.92499,0.017105,0.017105,0.008911
1-0110,pubchemPAH,VXRUJZQPKRBJKH-UHFFFAOYSA-N,c1c2ccc3c4c2c2c(c1)ccc1c2c4c(cc3)cc1,C20H10,d4tzvp,250.3,10,20,0,-768.777912207539,-768.5344219066,0.0001646401,-768.5835093498,6.271397778479,6.0987218916,0.0014060029,5.6795220108,0.2310515856,-8.5653,-0.028,8.5373,2.31944,222.79884,-0.00001 0.00028 0.91252,0.017105,0.017105,0.008911
1-0111,pubchemPAH,WCHUAFVNAGHGIM-UHFFFAOYSA-N,c1ccc2c(c1)ccc1c2ccc2c1cc1c(c2)ccc2c1cccc2,C26H16,xtb2,328.414,16,26,0,-63.857399817164,-63.513879164221,0.000217823422,-63.578823217564,10.935969938698,10.691591477715,0.001828466306,10.146434247338,0.323918650841,-9.8667,-7.5304,2.336246201469,0.014,267.737144,0.005 0.001 -0.000,0.01976611,0.003378952,0.002885658
1-0111,pubchemPAH,WCHUAFVNAGHGIM-UHFFFAOYSA-N,c1ccc2c(c1)ccc1c2ccc2c1cc1c(c2)ccc2c1cccc2,C26H16,r2scan,328.414,16,26,0,-1000.236177104297,-999.8853849007,0.0002110951,-999.948322894,8.642211864369,8.3905598407,0.0019616965,7.8056798734,0.331765825,-5.1285,-2.4564,2.6721,0.07716,356.68758,0.00529 0.02989 -0.00004,0.01955,0.003356,0.002864
1-0111,pubchemPAH,WCHUAFVNAGHGIM-UHFFFAOYSA-N,c1ccc2c(c1)ccc1c2ccc2c1cc1c(c2)ccc2c1cccc2,C26H16,d4tzvp,328.414,16,26,0,-1001.290640298729,-1000.9398480951,0.0002110951,-1001.0027860884,8.517082958931,8.2654309349,0.0019616965,7.6805509692,0.331765825,-7.5971,-0.0864,7.5107,0.0472,338.70137,0.00187 0.01848 -0.00003,0.01955,0.003356,0.002864
1-0112,pubchemPAH,WCTBPDZKIXGKEN-UHFFFAOYSA-N,c1cccc2c1cc1c(c2)c2c1cc1c(c2)c2c1cccc2,C22H12,xtb2,276.338,12,22,0,-53.110378961913,-52.839155304531,0.000193255993,-52.896774578779,8.936065624651,8.745099932189,0.001474469123,8.305486961897,0.254841368072,-9.6232,-7.6771,1.946117007164,0.461,216.065082,-0.181 0.000 -0.000,0.04937596,0.003800195,0.003528617
1-0112,pubchemPAH,WCTBPDZKIXGKEN-UHFFFAOYSA-N,c1cccc2c1cc1c(c2)c2c1cc1c(c2)c2c1cccc2,C22H12,r2scan,276.338,12,22,0,-845.267087266768,-844.9911064077,0.0001916123,-845.0482356263,6.991073118652,6.7953485957,0.0015797469,6.3243469441,0.2598696705,-4.7344,-2.6589,2.0755,0.90241,330.61144,-0.35503 0.00000 -0.00006,0.049138,0.00375,0.003484
1-0112,pubchemPAH,WCTBPDZKIXGKEN-UHFFFAOYSA-N,c1cccc2c1cc1c(c2)c2c1cc1c(c2)c2c1cccc2,C22H12,d4tzvp,276.338,12,22,0,-846.147989266282,-845.8720084072,0.0001916123,-845.9291376258,6.885793866976,6.6900693438,0.0015797469,6.2190676934,0.2598696705,-7.208,-0.0869,7.1211,0.92254,302.1146,-0.36295 0.00000 -0.00008,0.049138,0.00375,0.003484
1-0113,pubchemPAH,WDECIBYCCFPHNR-UHFFFAOYSA-N,c1ccc2c(c1)c1ccc3c(c1cc2)cccc3,C18H12,xtb2,228.294,12,18,0,-44.666638915037,-44.419240351899,0.000174157635,-44.471165450837,7.665511063235,7.488928351497,0.001280754969,7.107071256695,0.233573667076,-10.0424,-7.2914,2.751034637537,0.0,187.784131,0.000 0.000 -0.000,0.04257785,0.008888196,0.007353203
1-0113,pubchemPAH,WDECIBYCCFPHNR-UHFFFAOYSA-N,c1ccc2c(c1)c1ccc3c(c1cc2)cccc3,C18H12,r2scan,228.294,12,18,0,-693.015711937625,-692.7628624113,0.0001696473,-692.8134427577,6.068562138581,5.8865270265,0.0013748871,5.4766043423,0.2394682019,-5.3461,-2.1163,3.2298,2E-05,223.01926,0.00000 0.00000 -0.00001,0.042128,0.008819,0.007293
1-0113,pubchemPAH,WDECIBYCCFPHNR-UHFFFAOYSA-N,c1ccc2c(c1)c1ccc3c(c1cc2)cccc3,C18H12,d4tzvp,228.294,12,18,0,-693.752515866169,-693.4996663399,0.0001696473,-693.5502466863,5.981564297995,5.7995291857,0.0013748871,5.3896065027,0.2394682019,-7.9211,0.3495,8.2706,3E-05,217.84999,-0.00001 0.00000 -0.00001,0.042128,0.008819,0.007293
1-0114,pubchemPAH,WZZOGANLFXMPJK-UHFFFAOYSA-N,c1ccc2c(c1)ccc1c2ccc2c1c1ccc3c(c1cc2)cccc3,C26H16,xtb2,328.414,16,26,0,-63.852729333793,-63.509069701536,0.000213002322,-63.572576343841,10.931299455327,10.68678201503,0.001833287406,10.140187373615,0.324339225446,-9.9388,-7.4026,2.536176953543,0.063,267.706302,0.000 0.025 -0.000,0.01969267,0.003696715,0.003165925
1-0114,pubchemPAH,WZZOGANLFXMPJK-UHFFFAOYSA-N,c1ccc2c(c1)ccc1c2ccc2c1c1ccc3c(c1cc2)cccc3,C26H16,r2scan,328.414,16,26,0,-1000.229247096363,-999.8776357341,0.0002054239,-999.9388828709,8.635281856435,8.3828106741,0.0019673677,7.7962398503,0.3329901009,-5.2457,-2.2988,2.9469,0.06522,348.38202,0.00000 0.02566 0.00000,0.019802,0.003627,0.003113
1-0114,pubchemPAH,WZZOGANLFXMPJK-UHFFFAOYSA-N,c1ccc2c(c1)ccc1c2ccc2c1c1ccc3c(c1cc2)cccc3,C26H16,d4tzvp,328.414,16,26,0,-1001.283793147708,-1000.9321817854,0.0002054239,-1000.9934289222,8.51023580791,8.2577646252,0.0019673677,7.671193803,0.3329901009,-7.746,0.0863,7.8323,0.06439,332.52461,0.00000 0.02533 -0.00000,0.019802,0.003627,0.003113
1-0115,pubchemPAH,XAKRHFYJDSMEMI-UHFFFAOYSA-N,c1cc2-c3ccccc3-c3c2c2c1-c1ccccc1-c2cc3,C22H12,xtb2,276.338,12,22,0,-53.228656374451,-52.955795563814,0.00018454774,-53.010818472375,9.054343037189,8.861740191472,0.001483177376,8.419530855493,0.257201063211,-10.0748,-8.0774,1.997359793605,0.0,222.163534,-0.000 0.000 0.000,0.03035525,0.005989229,0.00500226
1-0115,pubchemPAH,XAKRHFYJDSMEMI-UHFFFAOYSA-N,c1cc2-c3ccccc3-c3c2c2c1-c1ccccc1-c2cc3,C22H12,r2scan,276.338,12,22,0,-845.397774725722,-845.1197741704,0.0001826464,-845.1742301946,7.121760577606,6.9240163584,0.0015887128,6.4503415124,0.2625005101,-5.3207,-3.0853,2.2354,6E-05,285.99263,0.00002 0.00000 0.00002,0.030192,0.005922,0.004951
1-0115,pubchemPAH,XAKRHFYJDSMEMI-UHFFFAOYSA-N,c1cc2-c3ccccc3-c3c2c2c1-c1ccccc1-c2cc3,C22H12,d4tzvp,276.338,12,22,0,-846.281428962895,-846.0034284076,0.0001826464,-846.0578844318001,7.019233563589,6.8214893442,0.0015887128,6.3478144994,0.2625005101,-8.0188,-0.7903,7.2285,5E-05,272.43025,-0.00000 -0.00000 0.00002,0.030192,0.005922,0.004951