id,subset,key,smiles,formula,level,mwt,nH,nC,nCl,E,H,S,G,dE,dH,dS,dG,zpe,homo,lumo,gap,Mu,alpha,tMu,rotA,rotB,rotC
2-0401,pubchemPCH,WHQOJMWBCRYTAE-UHFFFAOYSA-N,c1cc(Cl)c2c(c1)ccc1c2cccc1Cl,C14H8Cl2,r2scan,247.124,8,14,2,-1458.557221296624,-1458.3700853133,0.00017147,-1458.4212091007,4.700036012486,4.5695515605,0.0010927594,4.2437452509,0.1741202748,-5.7333,-2.3177,3.4156,1.6074,193.36321,-0.56025 0.18517 0.22748,0.026493,0.01028,0.007521
2-0401,pubchemPCH,WHQOJMWBCRYTAE-UHFFFAOYSA-N,c1cc(Cl)c2c(c1)ccc1c2cccc1Cl,C14H8Cl2,d4tzvp,247.124,8,14,2,-1459.205358993346,-1459.0182230100002,0.00017147,-1459.0693467974002,4.641158386504,4.5106739344,0.0010927594,4.1848676256,0.1741202748,-8.4058,0.1928,8.5986,1.64958,189.21248,-0.57686 0.18604 0.23194,0.026493,0.01028,0.007521
2-0402,pubchemPCH,WJYZNPLWZGYFIE-UHFFFAOYSA-N,c1c(Cl)c(Cl)c(c2c1cc(c(c2Cl)Cl)Cl)Cl,C10H2Cl6,xtb2,334.844,2,10,6,-49.757566429819,-49.656194767187,0.000196806438,-49.714872606815,4.142486378531,4.083604226739,0.000768155418,3.854578688641,0.085353964073,-11.029,-8.499,2.529957311147,1.821,182.484588,-0.000 0.716 -0.000,0.01620748,0.006258259,0.004514902
2-0402,pubchemPCH,WJYZNPLWZGYFIE-UHFFFAOYSA-N,c1c(Cl)c(Cl)c(c2c1cc(c(c2Cl)Cl)Cl)Cl,C10H2Cl6,r2scan,334.844,2,10,6,-3143.247983181887,-3143.1443863571,0.0001897746,-3143.2009676436,3.247319207119,3.1862110307,0.0008279734,2.9393506224,0.0881651508,-6.1296,-3.0508,3.0788,1.69554,206.95437,-0.00001 0.66706 -0.00000,0.015752,0.006182,0.004477
2-0402,pubchemPCH,WJYZNPLWZGYFIE-UHFFFAOYSA-N,c1c(Cl)c(Cl)c(c2c1cc(c(c2Cl)Cl)Cl)Cl,C10H2Cl6,d4tzvp,334.844,2,10,6,-3143.880422896486,-3143.7768260717,0.0001897746,-3143.8334073582,3.228421326496,3.1673131503,0.0008279734,2.9204527422,0.0881651508,-8.8915,-0.5787,8.3128,1.85315,198.05883,-0.00002 0.72907 -0.00001,0.015752,0.006182,0.004477
2-0403,pubchemPCH,WJZNPWXQXWMTPN-UHFFFAOYSA-N,c1c2c(cc3c1cc(c(c3)Cl)Cl)cc1c(c2)cccc1,C18H10Cl2,xtb2,297.184,10,18,2,-52.755335863333,-52.525301546375,0.000195107387,-52.583472813665,7.576123269481,7.416904803923,0.001293614009,7.031213786151,0.213591024294,-9.9119,-8.3086,1.603313545748,3.722,212.296657,1.465 -0.000 0.000,0.03569046,0.003758731,0.003400598
2-0403,pubchemPCH,WJZNPWXQXWMTPN-UHFFFAOYSA-N,c1c2c(cc3c1cc(c(c3)Cl)Cl)cc1c(c2)cccc1,C18H10Cl2,r2scan,297.184,10,18,2,-1612.160468160952,-1611.9254553579,0.0001896711,-1611.9820057912,5.979875156372,5.8156767675,0.0013886869,5.4016396388,0.2190752371,-4.9619,-3.1981,1.7638,3.35121,289.21267,1.31844 -0.00003 -0.00002,0.034799,0.00374,0.003377
2-0403,pubchemPCH,WJZNPWXQXWMTPN-UHFFFAOYSA-N,c1c2c(cc3c1cc(c(c3)Cl)Cl)cc1c(c2)cccc1,C18H10Cl2,d4tzvp,297.184,10,18,2,-1612.960296158205,-1612.7252833551,0.0001896711,-1612.7818337884,5.894792665551,5.7305942765,0.0013886869,5.3165571488,0.2190752371,-7.358,-0.9276,6.4304,3.48977,276.30257,1.37295 -0.00001 -0.00002,0.034799,0.00374,0.003377
2-0404,pubchemPCH,WKGAROCBKVXHDK-UHFFFAOYSA-N,c1ccc2c(c1)c1cc(Cl)c3c(c1cc2Cl)c(Cl)ccc3,C18H9Cl3,xtb2,331.629,9,18,3,-56.81525326194,-56.592451057177,0.000207238196,-56.654239125445,7.546998297063,7.3950119437,0.001298387596,7.007897681245,0.205090476431,-10.3504,-7.931,2.419445237707,1.405,224.367574,0.019 -0.546 -0.087,0.01111792,0.006628093,0.004277496
2-0404,pubchemPCH,WKGAROCBKVXHDK-UHFFFAOYSA-N,c1ccc2c(c1)c1cc(Cl)c3c(c1cc2Cl)c(Cl)ccc3,C18H9Cl3,r2scan,331.629,9,18,3,-2071.747921612658,-2071.519943589,0.0002008018,-2071.579812655,5.95060700531,5.7934433958,0.001394468,5.3776826341,0.2108450385,-5.5438,-2.6889,2.8549,1.36887,270.33131,0.06644 -0.53242 -0.04625,0.010914,0.006568,0.004222
2-0404,pubchemPCH,WKGAROCBKVXHDK-UHFFFAOYSA-N,c1ccc2c(c1)c1cc(Cl)c3c(c1cc2Cl)c(Cl)ccc3,C18H9Cl3,d4tzvp,331.629,9,18,3,-2072.590789398367,-2072.3628113747,0.0002008018,-2072.4226804407,5.878009943473,5.7208463339,0.001394468,5.3050855731,0.2108450385,-8.1174,-0.2978,7.8196,1.43227,260.33673,0.10807 -0.55142 -0.04208,0.010914,0.006568,0.004222
2-0405,pubchemPCH,WLYLNUVMTOGZFE-UHFFFAOYSA-N,c1ccc2c3c1cccc3c1c3c2cc(Cl)cc3ccc1,C20H11Cl,xtb2,286.761,11,20,1,-53.021206335178,-52.76903128786,0.00019394533,-52.826856087999,8.344443369621,8.167805230463,0.001384277926,7.755082765801,0.236167240397,-9.8942,-8.016,1.878261939644,2.422,217.257039,-0.749 -0.589 0.000,0.01612835,0.007865519,0.005287094
2-0405,pubchemPCH,WLYLNUVMTOGZFE-UHFFFAOYSA-N,c1ccc2c3c1cccc3c1c3c2cc(Cl)cc3ccc1,C20H11Cl,r2scan,286.761,11,20,1,-1228.810743665396,-1228.5536956214,0.0001909798,-1228.610636245,6.582440089048,6.4009274202,0.0014838788,5.9585088277,0.2412711038,-4.9981,-2.9355,2.0626,2.26914,268.00044,-0.70429 -0.54858 0.00276,0.015994,0.007786,0.005237
2-0405,pubchemPCH,WLYLNUVMTOGZFE-UHFFFAOYSA-N,c1ccc2c3c1cccc3c1c3c2cc(Cl)cc3ccc1,C20H11Cl,d4tzvp,286.761,11,20,1,-1229.653363022924,-1229.3963149789,0.0001909798,-1229.4532556025,6.489513576944,6.3080009079,0.0014838788,5.8655823165,0.2412711038,-7.3789,-0.6523,6.7266,2.25296,258.48545,-0.68604 -0.56123 0.00297,0.015994,0.007786,0.005237
2-0406,pubchemPCH,WNDOSDLPYAMURA-UHFFFAOYSA-N,Clc1c(Cl)cc2c(c1Cl)c1c(Cl)c(Cl)cc(c1c(c2Cl)Cl)Cl,C14H2Cl8,xtb2,453.794,2,14,8,-67.437186937198,-67.304501045053,0.000238068043,-67.37548103209,5.683871130528,5.607837919503,0.001056391167,5.292874892502,0.111174103192,-10.9313,-8.6663,2.265059145462,0.782,247.378937,-0.240 0.193 -0.001,0.006550673,0.004442416,0.002843963
2-0406,pubchemPCH,WNDOSDLPYAMURA-UHFFFAOYSA-N,Clc1c(Cl)cc2c(c1Cl)c1c(Cl)c(Cl)cc(c1c(c2Cl)Cl)Cl,C14H2Cl8,r2scan,453.794,2,14,8,-4215.995867290579,-4215.8598667961,0.000227683,-4215.927750481,4.438352389832,4.3590034265,0.0011380172,4.0197034202,0.115347822,-6.0552,-3.2982,2.757,0.64465,291.88898,-0.20441 0.15012 0.00185,0.006454,0.004343,0.002847
2-0406,pubchemPCH,WNDOSDLPYAMURA-UHFFFAOYSA-N,Clc1c(Cl)cc2c(c1Cl)c1c(Cl)c(Cl)cc(c1c(c2Cl)Cl)Cl,C14H2Cl8,d4tzvp,453.794,2,14,8,-4216.860000514743,-4216.7240000202,0.000227683,-4216.7918837051,4.412144134461,4.3327951714,0.0011380172,3.9934951653,0.115347822,-8.7608,-0.9211,7.8397,0.75462,276.18255,-0.23417 0.18234 -0.00736,0.006454,0.004343,0.002847
2-0407,pubchemPCH,WNLMIXMIPWSDGW-UHFFFAOYSA-N,Clc1ccc2c(c1)ccc1c2cc(Cl)cc1Cl,C14H7Cl3,xtb2,281.569,7,14,3,-47.22710773475,-47.052562035813,0.000188350442,-47.108718720056,5.919003783205,5.801110765388,0.001021586788,5.496524663898,0.159644387845,-10.754,-7.8152,2.938827893363,0.435,184.438572,0.155 0.072 0.000,0.02076687,0.006025263,0.004670246
2-0407,pubchemPCH,WNLMIXMIPWSDGW-UHFFFAOYSA-N,Clc1ccc2c(c1)ccc1c2cc(Cl)cc1Cl,C14H7Cl3,r2scan,281.569,7,14,3,-1918.150769976257,-1917.9724816568,0.000183629,-1918.0272306526,4.676863089351,4.5552263012,0.0010975122,4.2280029343,0.1637901036,-5.9676,-2.4998,3.4678,0.39864,216.45301,0.13670 0.07688 -0.00001,0.020524,0.005964,0.004621
2-0407,pubchemPCH,WNLMIXMIPWSDGW-UHFFFAOYSA-N,Clc1ccc2c(c1)ccc1c2cc(Cl)cc1Cl,C14H7Cl3,d4tzvp,281.569,7,14,3,-1918.833494437484,-1918.655206118,0.000183629,-1918.7099551138,4.622017868402,4.5003810802,0.0010975122,4.173157714,0.1637901036,-8.6505,0.0059,8.6564,0.36944,208.85741,0.12086 0.08074 -0.00002,0.020524,0.005964,0.004621
2-0408,pubchemPCH,WNYHOOQHJMHHQW-UHFFFAOYSA-N,c1cc2ccc3c4c2c(c1)ccc4ccc3Cl,C16H9Cl,xtb2,236.701,9,16,1,-43.431920604754,-43.22787024099,0.000170065304,-43.27857521134,6.715308652529,6.572632026645,0.00111246939,6.240949277184,0.191160526586,-10.0664,-7.7345,2.331941704792,1.995,177.30885,0.659 0.426 -0.000,0.02881292,0.01179199,0.008367501
2-0408,pubchemPCH,WNYHOOQHJMHHQW-UHFFFAOYSA-N,c1cc2ccc3c4c2c(c1)ccc4ccc3Cl,C16H9Cl,r2scan,236.701,9,16,1,-1075.210274509896,-1075.0017792345,0.0001664718,-1075.0514128129,5.30537865399,5.1582558709,0.0011942582,4.8021876982,0.1959752131,-5.2825,-2.5099,2.7726,1.87681,208.18088,0.61930 0.40208 -0.00000,0.028572,0.011659,0.00828
2-0408,pubchemPCH,WNYHOOQHJMHHQW-UHFFFAOYSA-N,c1cc2ccc3c4c2c(c1)ccc4ccc3Cl,C16H9Cl,d4tzvp,236.701,9,16,1,-1075.892813544129,-1075.6843182686998,0.0001664718,-1075.7339518471,5.230266983961,5.0831442007,0.0011942582,4.7270760289,0.1959752131,-7.7366,-0.1806,7.556,1.93112,204.28588,0.63166 0.42216 0.00000,0.028572,0.011659,0.00828
2-0409,pubchemPCH,WOCSOSVVVSBRCE-UHFFFAOYSA-N,c1c2-c3c(-c2cc(c1Cl)Cl)cc(c(c3)Cl)Cl,C12H4Cl4,xtb2,289.976,4,12,4,-45.892309312365,-45.762208206164,0.000183973873,-45.817060016416,4.868721260397,4.785830721796,0.000853585447,4.531334220244,0.115397212017,-10.5963,-8.2524,2.343855805704,0.002,171.575159,0.000 -0.000 -0.001,0.03281999,0.004621131,0.004050774
2-0409,pubchemPCH,WOCSOSVVVSBRCE-UHFFFAOYSA-N,c1c2-c3c(-c2cc(c1Cl)Cl)cc(c(c3)Cl)Cl,C12H4Cl4,r2scan,289.976,4,12,4,-2300.234254623581,-2300.1018314691,0.0001818368,-2300.1560461088,3.802601679813,3.7173881347,0.0009155,3.4444316912,0.1180369918,-5.6324,-2.8762,2.7562,0.00025,212.91935,-0.00000 0.00000 -0.00010,0.031809,0.004576,0.004
2-0409,pubchemPCH,WOCSOSVVVSBRCE-UHFFFAOYSA-N,c1c2-c3c(-c2cc(c1Cl)Cl)cc(c(c3)Cl)Cl,C12H4Cl4,d4tzvp,289.976,4,12,4,-2300.867635627245,-2300.7352124727,0.0001818368,-2300.7894271124,3.764564066169,3.6793505211,0.0009155,3.406394078,0.1180369918,-8.3485,-0.2896,8.0589,0.00028,200.85908,-0.00000 0.00002 -0.00011,0.031809,0.004576,0.004
2-0410,pubchemPCH,WOPGSMVMUKLOCF-UHFFFAOYSA-N,c1ccc2c3c1cccc3c1c3c2cccc3ccc1Cl,C20H11Cl,xtb2,286.761,11,20,1,-53.014488305379,-52.762332595219,0.000190551612,-52.819145558409,8.337725339822,8.161106537822,0.001387671644,7.747372236211,0.236393978681,-9.7999,-7.9407,1.859236784902,1.724,217.282344,0.031 -0.657 -0.168,0.01341437,0.01066321,0.006108773
2-0410,pubchemPCH,WOPGSMVMUKLOCF-UHFFFAOYSA-N,c1ccc2c3c1cccc3c1c3c2cccc3ccc1Cl,C20H11Cl,r2scan,286.761,11,20,1,-1228.80031714434,-1228.5425816408,0.0001850116,-1228.5977428428,6.572013567992,6.3898134396,0.001489847,5.9456154255,0.2424817067,-4.9495,-2.8372,2.1123,1.53156,263.32367,0.05001 -0.57263 -0.18072,0.013285,0.010493,0.006029
2-0410,pubchemPCH,WOPGSMVMUKLOCF-UHFFFAOYSA-N,c1ccc2c3c1cccc3c1c3c2cccc3ccc1Cl,C20H11Cl,d4tzvp,286.761,11,20,1,-1229.643686116424,-1229.3859506129002,0.0001850116,-1229.4411118149,6.479836670444,6.2976365419,0.001489847,5.8534385289,0.2424817067,-7.3583,-0.5528,6.8055,1.5918,254.86403,0.06367 -0.59460 -0.18598,0.013285,0.010493,0.006029
2-0411,pubchemPCH,WYAQZCWAAJGJSU-UHFFFAOYSA-N,c1c(Cl)c(Cl)c(c2c1ccc1c2cccc1)Cl,C14H7Cl3,xtb2,281.569,7,14,3,-47.212461081138,-47.03798787956,0.00018716773,-47.093791938194,5.904357129593,5.786536609135,0.0010227695,5.481597882036,0.159627748103,-10.6498,-7.7472,2.902619616396,3.526,184.802774,-1.164 0.748 -0.099,0.02281915,0.008168861,0.006078453
2-0411,pubchemPCH,WYAQZCWAAJGJSU-UHFFFAOYSA-N,c1c(Cl)c(Cl)c(c2c1ccc1c2cccc1)Cl,C14H7Cl3,r2scan,281.569,7,14,3,-1918.130338207086,-1917.9517659537,0.0001809494,-1918.0057160298,4.65643132018,4.5345105981,0.0011001918,4.2064883115,0.1643002313,-5.8291,-2.4264,3.4027,3.15075,212.57503,-1.04847 0.64991 -0.12197,0.022438,0.008052,0.006003
2-0411,pubchemPCH,WYAQZCWAAJGJSU-UHFFFAOYSA-N,c1c(Cl)c(Cl)c(c2c1ccc1c2cccc1)Cl,C14H7Cl3,d4tzvp,281.569,7,14,3,-1918.815106147712,-1918.6365338943,0.0001809494,-1918.6904839704,4.60362957863,4.4817088565,0.0011001918,4.1536865706,0.1643002313,-8.5042,0.0645,8.5687,3.2529,205.79111,-1.07037 0.69006 -0.12617,0.022438,0.008052,0.006003
2-0412,pubchemPCH,WYLDWCYZCFRVRH-UHFFFAOYSA-N,Clc1cc(Cl)c2c(c1)c(Cl)c(cc2Cl)Cl,C10H3Cl5,xtb2,300.399,3,10,5,-45.716231202145,-45.606494847586,0.000188340208,-45.662648480725,4.190193521882,4.122946678163,0.000759717252,3.896436979237,0.095056556283,-10.9249,-8.3581,2.566805498502,0.194,169.678412,0.039 0.066 -0.000,0.01301472,0.009859753,0.005609831
2-0412,pubchemPCH,WYLDWCYZCFRVRH-UHFFFAOYSA-N,Clc1cc(Cl)c2c(c1)c(Cl)c(cc2Cl)Cl,C10H3Cl5,r2scan,300.399,3,10,5,-2683.679638054316,-2683.5675412618,0.0001856448,-2683.6228912573,3.295695682316,3.2260875382,0.0008151914,2.9830381046,0.0977386595,-6.0786,-2.9666,3.112,0.05103,189.16966,0.01152 0.01644 -0.00000,0.012799,0.0097,0.005518
2-0412,pubchemPCH,WYLDWCYZCFRVRH-UHFFFAOYSA-N,Clc1cc(Cl)c2c(c1)c(Cl)c(cc2Cl)Cl,C10H3Cl5,d4tzvp,300.399,3,10,5,-2684.275104044008,-2684.1630072515,0.0001856448,-2684.218357247,3.270378436258,3.2007702923,0.0008151914,2.957720859,0.0977386595,-8.8255,-0.4883,8.3372,0.01277,182.71475,0.00419 -0.00277 -0.00000,0.012799,0.0097,0.005518
2-0413,pubchemPCH,XAPCFZKHPMDDDY-UHFFFAOYSA-N,c1cc(Cl)c2c(c1)c1c3ccccc3c3c(c1cc2)cccc3,C22H13Cl,xtb2,312.799,13,22,1,-58.308962327129,-58.021380879542,0.000205894457,-58.082768311822,9.25864109097,9.056038665063,0.001561611105,8.590444312952,0.269763247509,-10.1151,-7.5114,2.603649117675,2.134,239.843246,-0.700 -0.430 -0.174,0.01426008,0.005879508,0.00430286
2-0413,pubchemPCH,XAPCFZKHPMDDDY-UHFFFAOYSA-N,c1cc(Cl)c2c(c1)c1c3ccccc3c3c(c1cc2)cccc3,C22H13Cl,r2scan,312.799,13,22,1,-1306.198635154744,-1305.9043102719,0.0001990234,-1305.9636491077,7.31135603249,7.1020084467,0.0016765514,6.6021445212,0.2771483755,-5.3919,-2.3842,3.0077,1.99059,288.23707,-0.65266 -0.40082 -0.16337,0.014129,0.005799,0.004235
2-0413,pubchemPCH,XAPCFZKHPMDDDY-UHFFFAOYSA-N,c1cc(Cl)c2c(c1)c1c3ccccc3c3c(c1cc2)cccc3,C22H13Cl,d4tzvp,312.799,13,22,1,-1307.131192022474,-1306.8368671397,0.0001990234,-1306.8962059755,7.211661606248,7.0023140203,0.0016765514,6.5024500961,0.2771483755,-7.935,0.0307,7.9657,1.96046,278.50611,-0.63170 -0.40952 -0.16774,0.014129,0.005799,0.004235
2-0414,pubchemPCH,XAWZWEZEABZLLZ-UHFFFAOYSA-N,Clc1ccc2c(c1)cc1c(c2)c(Cl)ccc1,C14H8Cl2,xtb2,247.124,8,14,2,-43.170248224062,-42.987817588412,0.000177057103,-43.040607163524,5.951186643542,5.825408689012,0.001015975731,5.522495524052,0.168888840125,-10.2516,-8.0776,2.17399102609,1.548,172.101399,-0.457 -0.403 0.000,0.0368571,0.007057169,0.005923059
2-0414,pubchemPCH,XAWZWEZEABZLLZ-UHFFFAOYSA-N,Clc1ccc2c(c1)cc1c(c2)c(Cl)ccc1,C14H8Cl2,r2scan,247.124,8,14,2,-1458.562420204669,-1458.3759410925,0.0001725752,-1458.4273944027,4.705234920531,4.5754073397,0.0010916542,4.2499305529,0.1733640333,-5.3773,-2.8987,2.4786,1.43314,206.79952,-0.43469 -0.35910 0.00001,0.03643,0.00698,0.005858
2-0414,pubchemPCH,XAWZWEZEABZLLZ-UHFFFAOYSA-N,Clc1ccc2c(c1)cc1c(c2)c(Cl)ccc1,C14H8Cl2,d4tzvp,247.124,8,14,2,-1459.206365900438,-1459.0198867882,0.0001725752,-1459.0713400984,4.642165293596,4.5123377126,0.0010916542,4.1868609266,0.1733640333,-7.9335,-0.4875,7.446,1.53561,201.14109,-0.47167 -0.37751 0.00001,0.03643,0.00698,0.005858
2-0415,pubchemPCH,XEQOKIQSJUEVOK-UHFFFAOYSA-N,c1c(Cl)c(Cl)c(c2c1c(Cl)c1c(c2Cl)cc(c(c1Cl)Cl)Cl)Cl,C14H2Cl8,xtb2,453.794,2,14,8,-67.437449885641,-67.304744409963,0.000236603672,-67.37528779482,5.684134078971,5.608081284413,0.001057855538,5.292681655232,0.111152117927,-10.7643,-9.0433,1.721040604533,0.073,247.387449,-0.000 -0.000 -0.029,0.009170721,0.003119863,0.002349012
2-0415,pubchemPCH,XEQOKIQSJUEVOK-UHFFFAOYSA-N,c1c(Cl)c(Cl)c(c2c1c(Cl)c1c(c2Cl)cc(c(c1Cl)Cl)Cl)Cl,C14H2Cl8,r2scan,453.794,2,14,8,-4215.994044180674,-4215.8582146628,0.0002287641,-4215.9264206848,4.436529279928,4.3573512932,0.0011369361,4.018373624,0.1150944966,-5.7749,-3.7444,2.0305,0.17264,308.50808,-0.00001 0.00006 -0.06792,0.008964,0.003088,0.002375
2-0415,pubchemPCH,XEQOKIQSJUEVOK-UHFFFAOYSA-N,c1c(Cl)c(Cl)c(c2c1c(Cl)c1c(c2Cl)cc(c(c1Cl)Cl)Cl)Cl,C14H2Cl8,d4tzvp,453.794,2,14,8,-4216.854642739278,-4216.7188132214,0.0002287641,-4216.7870192434,4.406786358995,4.3276083726,0.0011369361,3.9886307036,0.1150944966,-8.3426,-1.4936,6.849,0.24314,291.44099,-0.00001 0.00003 -0.09566,0.008964,0.003088,0.002375
2-0416,pubchemPCH,XETZLCDTURHCTH-UHFFFAOYSA-N,c1cc(Cl)c2c3c1ccc(c3c1c3c2cc(Cl)cc3ccc1Cl)Cl,C20H8Cl4,xtb2,390.096,8,20,4,-65.160038724225,-64.93293046311,0.00022083962,-64.998773795841,8.216148645593,8.064577292638,0.001408096824,7.644753223585,0.207399535396,-10.228,-8.4469,1.781103342501,1.752,254.120838,-0.674 -0.115 -0.088,0.008192309,0.005456937,0.003641426
2-0416,pubchemPCH,XETZLCDTURHCTH-UHFFFAOYSA-N,c1cc(Cl)c2c3c1ccc(c3c1c3c2cc(Cl)cc3ccc1Cl)Cl,C20H8Cl4,r2scan,390.096,8,20,4,-2607.528677067878,-2607.296384519,0.0002130017,-2607.3598909849,6.450208683226,6.2934515094,0.0015125923,5.8424719621,0.2132588428,-5.3394,-3.228,2.1114,1.73858,308.56697,-0.67398 -0.09954 -0.06073,0.007992,0.005397,0.003618
2-0416,pubchemPCH,XETZLCDTURHCTH-UHFFFAOYSA-N,c1cc(Cl)c2c3c1ccc(c3c1c3c2cc(Cl)cc3ccc1Cl)Cl,C20H8Cl4,d4tzvp,390.096,8,20,4,-2608.478277232776,-2608.2459846839,0.0002130017,-2608.3094911498,6.372599900076,6.2158427263,0.0015125923,5.7648631798,0.2132588428,-7.8072,-0.9515,6.8557,1.71216,295.36866,-0.65852 -0.12942 -0.05777,0.007992,0.005397,0.003618
2-0417,pubchemPCH,XHBAINRAQXSBGB-UHFFFAOYSA-N,c1ccc2c(c1)c(Cl)c1c(c2Cl)c(Cl)ccc1Cl,C14H6Cl4,xtb2,316.014,6,14,4,-51.248965148163,-51.083041128466,0.000194999893,-51.141180346673,5.851818825593,5.742547487016,0.001031841733,5.434903873829,0.149754255022,-10.2794,-8.4489,1.830472212409,1.164,197.072149,-0.458 -0.000 -0.000,0.01093198,0.01069055,0.005502789
2-0417,pubchemPCH,XHBAINRAQXSBGB-UHFFFAOYSA-N,c1ccc2c(c1)c(Cl)c1c(c2Cl)c(Cl)ccc1Cl,C14H6Cl4,r2scan,316.014,6,14,4,-2377.684949283187,-2377.5152681213,0.0001910624,-2377.5722333696,4.594320793513,4.4812911629,0.0011069906,4.1512417828,0.154037286,-5.392,-3.3018,2.0902,1.12543,231.1239,-0.44277 0.00029 -0.00000,0.01062,0.010525,0.005563
2-0417,pubchemPCH,XHBAINRAQXSBGB-UHFFFAOYSA-N,c1ccc2c(c1)c(Cl)c1c(c2Cl)c(Cl)ccc1Cl,C14H6Cl4,d4tzvp,316.014,6,14,4,-2378.401865315792,-2378.2321841539,0.0001910624,-2378.2891494022,4.54311278447,4.4300831539,0.0011069906,4.1000337744,0.154037286,-7.9514,-0.9785,6.9729,1.05613,224.63813,-0.41551 0.00024 0.00001,0.01062,0.010525,0.005563
2-0418,pubchemPCH,XJEVSCXXKBCJIB-UHFFFAOYSA-N,c1c2c(cc3c1cc1c(c3)cc(c(c1)Cl)Cl)cc1c(c2)cc(c(c1)Cl)Cl,C22H10Cl4,xtb2,416.134,10,22,4,-70.444874372806,-70.183610582083,0.000234295159,-70.253465683597,9.127426023572,8.951141254529,0.001583923591,8.478894434669,0.239251556537,-9.9563,-8.7561,1.200185889441,0.001,276.860527,-0.000 -0.000 0.000,0.02366799,0.001382672,0.001306355
2-0418,pubchemPCH,XJEVSCXXKBCJIB-UHFFFAOYSA-N,c1c2c(cc3c1cc1c(c3)cc(c(c1)Cl)Cl)cc1c(c2)cc(c(c1)Cl)Cl,C22H10Cl4,r2scan,416.134,10,22,4,-2684.922112657453,-2684.6554376787,0.0002263435,-2684.7229220079,7.184668726895,7.0029710451,0.0016999667,6.4961258159,0.2452770923,-4.9048,-3.6603,1.2445,0.00011,430.61697,0.00000 0.00004 -0.00001,0.022982,0.001377,0.001299
2-0418,pubchemPCH,XJEVSCXXKBCJIB-UHFFFAOYSA-N,c1c2c(cc3c1cc1c(c3)cc(c(c1)Cl)Cl)cc1c(c2)cc(c(c1)Cl)Cl,C22H10Cl4,d4tzvp,416.134,10,22,4,-2685.947236717082,-2685.6805617383,0.0002263435,-2685.7480460675,7.085878414136,6.9041807323,0.0016999667,6.3973355041,0.2452770923,-7.186,-1.5229,5.6631,0.0001,398.66253,-0.00003 0.00002 -0.00001,0.022982,0.001377,0.001299
2-0419,pubchemPCH,XKEFYDZQGKAQCN-UHFFFAOYSA-N,c1c(Cl)cc(cc1Cl)Cl,C6H3Cl3,xtb2,181.449,3,6,3,-28.031040714562,-27.952844622077,0.000140906211,-27.994855808938,2.643238789681,2.593369037756,0.000477653895,2.450956528864,0.068998654724,-11.4229,-7.3053,4.11756245496,0.0,104.745445,0.000 -0.000 0.000,0.02864057,0.02864057,0.01432029
2-0419,pubchemPCH,XKEFYDZQGKAQCN-UHFFFAOYSA-N,c1c(Cl)cc(cc1Cl)Cl,C6H3Cl3,r2scan,181.449,3,6,3,-1610.927376714202,-1610.8472631697,0.0001445649,-1610.8903651974,2.10028526818,2.0484974893,0.0005083191,1.8969420843,0.0712128626,-6.7931,-1.8909,4.9022,0.00066,106.30398,-0.00013 -0.00023 0.00000,0.02825,0.028246,0.014124
2-0419,pubchemPCH,XKEFYDZQGKAQCN-UHFFFAOYSA-N,c1c(Cl)cc(cc1Cl)Cl,C6H3Cl3,d4tzvp,181.449,3,6,3,-1611.291627807531,-1611.211514263,0.0001445649,-1611.2546162907,2.082757010073,2.0309692312,0.0005083191,1.8794138265,0.0712128626,-9.8317,0.8284,10.6601,0.00069,104.27074,-0.00001 -0.00027 -0.00000,0.02825,0.028246,0.014124
2-0420,pubchemPCH,XKIKPGKXWOOWGV-UHFFFAOYSA-N,c1ccc2c(c1)cc1c(c2Cl)cc(cc1)Cl,C14H8Cl2,xtb2,247.124,8,14,2,-43.168929308949,-42.98643777406,0.000176861489,-43.039169027111,5.949867728429,5.82402887466,0.001016171345,5.521057387639,0.168927645723,-10.1834,-8.0808,2.102507555903,3.118,172.167441,-0.837 -0.896 -0.000,0.03178285,0.00878766,0.006884234