id,subset,key,smiles,formula,level,mwt,nH,nC,nCl,E,H,S,G,dE,dH,dS,dG,zpe,homo,lumo,gap,Mu,alpha,tMu,rotA,rotB,rotC
3-0061,monoCl,BHCNSVXHDZDNMH-UHFFFAOYSA-N,c1ccc2c(c1)cc1-c3c(-c1c2)c1ccc(cc1c1c3cccc1)Cl,C24H13Cl,xtb2,336.821,13,24,1,-62.536722127743,-62.237480389555,0.000218224805,-62.302544115048,9.899808148854,9.690266489106,0.001655687013,9.196623404808,0.279847485517,-9.8367,-7.879,1.957662203041,1.781,254.267739,0.464 0.525 0.000,0.01232554,0.003855716,0.002936965
3-0061,monoCl,BHCNSVXHDZDNMH-UHFFFAOYSA-N,c1ccc2c(c1)cc1-c3c(-c1c2)c1ccc(cc1c1c3cccc1)Cl,C24H13Cl,r2scan,336.821,13,24,1,-1382.335262245979,-1382.0305013418,0.0002128298,-1382.0939565494,7.783550949189,7.568488303,0.0017761574,7.0389268295,0.2856622544,-5.0068,-2.7481,2.2587,1.31692,351.42107,0.21242 0.47256 -0.00000,0.012225,0.003816,0.002908
3-0061,monoCl,BHCNSVXHDZDNMH-UHFFFAOYSA-N,c1ccc2c(c1)cc1-c3c(-c1c2)c1ccc(cc1c1c3cccc1)Cl,C24H13Cl,d4tzvp,336.821,13,24,1,-1383.337240372121,-1383.0324794679,0.0002128298,-1383.0959346755,7.672088040329,7.4570253939,0.0017761574,6.9274639217,0.2856622544,-7.4424,-0.3435,7.0989,1.27883,328.49932,0.14603 0.48146 -0.00000,0.012225,0.003816,0.002908
3-0062,monoCl,BHGBVVQKBUKFSD-UHFFFAOYSA-N,c1ccc2c(c1)cc1c(c2)ccc2c1ccc1c2cc2c(c1)cccc2Cl,C26H15Cl,xtb2,362.859,15,26,1,-67.903166198428,-67.568229517629,0.000227894179,-67.636176167067,10.892693948937,10.656899460098,0.001835299945,10.109704780155,0.314036747886,-9.8024,-7.9207,1.881726709485,1.82,279.855647,0.223 0.680 -0.000,0.01931034,0.002510859,0.002221947
3-0062,monoCl,BHGBVVQKBUKFSD-UHFFFAOYSA-N,c1ccc2c(c1)cc1c(c2)ccc2c1ccc1c2cc2c(c1)cccc2Cl,C26H15Cl,r2scan,362.859,15,26,1,-1459.81041345364,-1459.4682161601,0.0002204235,-1459.5339354124,8.599726610944,8.3566694973,0.0019692799,7.7695285233,0.3219236143,-4.995,-2.8389,2.1561,1.70313,389.7005,0.19805 0.64011 -0.00002,0.019038,0.002493,0.002204
3-0062,monoCl,BHGBVVQKBUKFSD-UHFFFAOYSA-N,c1ccc2c(c1)cc1c(c2)ccc2c1ccc1c2cc2c(c1)cccc2Cl,C26H15Cl,d4tzvp,362.859,15,26,1,-1460.896018776343,-1460.5538214828,0.0002204235,-1460.6195407351,8.475185474305,8.2321283604,0.0019692799,7.6449873879,0.3219236143,-7.3933,-0.5298,6.8635,1.69301,368.04201,0.14584 0.64990 -0.00004,0.019038,0.002493,0.002204
3-0063,monoCl,BHPWMKZSSFEOHI-UHFFFAOYSA-N,c1ccc2c(c1)c1ccc3c(c1cc2)cc1c(c3)c2c(Cl)cccc2cc1,C26H15Cl,xtb2,362.859,15,26,1,-67.903801178203,-67.56842809932,0.000226865621,-67.636068084288,10.893328928712,10.657098041789,0.001836328503,10.109596697376,0.3145365822,-9.9337,-7.6482,2.285450504037,1.565,279.855268,-0.062 -0.587 -0.175,0.0183934,0.00275145,0.002411181
3-0063,monoCl,BHPWMKZSSFEOHI-UHFFFAOYSA-N,c1ccc2c(c1)c1ccc3c(c1cc2)cc1c(c3)c2c(Cl)cccc2cc1,C26H15Cl,r2scan,362.859,15,26,1,-1459.808347639246,-1459.4655325423,0.0002196133,-1459.5310102526,8.59766079655,8.3539858795,0.0019700901,7.7666033635,0.3226595817,-5.1655,-2.5235,2.642,1.41017,377.76391,-0.08199 -0.51926 -0.17732,0.018153,0.002719,0.002382
3-0063,monoCl,BHPWMKZSSFEOHI-UHFFFAOYSA-N,c1ccc2c(c1)c1ccc3c(c1cc2)cc1c(c3)c2c(Cl)cccc2cc1,C26H15Cl,d4tzvp,362.859,15,26,1,-1460.89799543563,-1460.5551803387,0.0002196133,-1460.620658049,8.477162133592,8.2334872163,0.0019700901,7.6461047018,0.3226595817,-7.6252,-0.1487,7.4765,1.45838,356.76209,-0.13528 -0.52740 -0.18096,0.018153,0.002719,0.002382
3-0064,monoCl,BHYZRPSTOZMFCW-UHFFFAOYSA-N,c1ccc2c(c1)ccc1c2c2c(Cl)cccc2c2c1cccc2,C22H13Cl,xtb2,312.799,13,22,1,-58.304260022682,-58.017080534259,0.000205167887,-58.078251339765,9.253938786523,9.05173831978,0.001562337675,8.585927340895,0.269357357789,-10.0874,-7.4422,2.645209007015,1.705,239.926382,-0.505 -0.275 0.346,0.01286203,0.007746267,0.005241191
3-0064,monoCl,BHYZRPSTOZMFCW-UHFFFAOYSA-N,c1ccc2c(c1)ccc1c2c2c(Cl)cccc2c2c1cccc2,C22H13Cl,r2scan,312.799,13,22,1,-1306.188798937319,-1305.8949428696,0.0001984291,-1305.9541045055,7.301519815065,7.0926410444,0.0016771457,6.592599919,0.2766844897,-5.3689,-2.3203,3.0486,1.60008,283.99296,-0.49623 -0.19223 0.33628,0.012438,0.007684,0.005173
3-0064,monoCl,BHYZRPSTOZMFCW-UHFFFAOYSA-N,c1ccc2c(c1)ccc1c2c2c(Cl)cccc2c2c1cccc2,C22H13Cl,d4tzvp,312.799,13,22,1,-1307.121497584475,-1306.8276415168002,0.0001984291,-1306.8868031527002,7.201967168249,6.9930883974,0.0016771457,6.4930472733,0.2766844897,-7.9227,0.099,8.0217,1.66938,274.90671,-0.53531 -0.17426 0.33826,0.012438,0.007684,0.005173
3-0065,monoCl,BIIBVWIFMBHENW-UHFFFAOYSA-N,c1ccc2c(c1)cc1c(c2)c2-c3cccc4c3c(-c2c(c1)Cl)ccc4,C24H13Cl,xtb2,336.821,13,24,1,-62.59529930651,-62.29561173029,0.000213871717,-62.359377582718,9.958385327621,9.748397829841,0.001660040101,9.253456872478,0.280698309282,-9.8601,-8.1922,1.667859555823,2.079,257.154931,0.107 -0.811 0.000,0.01267316,0.004710604,0.003434138
3-0065,monoCl,BIIBVWIFMBHENW-UHFFFAOYSA-N,c1ccc2c(c1)cc1c(c2)c2-c3cccc4c3c(-c2c(c1)Cl)ccc4,C24H13Cl,r2scan,336.821,13,24,1,-1382.398078456722,-1382.0921989233,0.0002085054,-1382.1543648047,7.846367159932,7.6301858845,0.0017804818,7.0993350848,0.2873224917,-5.0289,-3.1454,1.8835,1.81958,337.45654,0.06097 -0.71326 -0.00006,0.012495,0.00468,0.003405
3-0065,monoCl,BIIBVWIFMBHENW-UHFFFAOYSA-N,c1ccc2c(c1)cc1c(c2)c2-c3cccc4c3c(-c2c(c1)Cl)ccc4,C24H13Cl,d4tzvp,336.821,13,24,1,-1383.398746802803,-1383.0928672694,0.0002085054,-1383.1550331508,7.733594471011,7.5174131954,0.0017804818,6.986562397,0.2873224917,-7.5187,-0.8862,6.6325,1.80433,321.45959,0.16236 -0.69105 -0.00005,0.012495,0.00468,0.003405
3-0066,monoCl,BJGBDEPLRWYLBU-UHFFFAOYSA-N,c1c(Cl)cc2c(c1)ccc1c2c2c3ccccc3ccc2c2c1cccc2,C26H15Cl,xtb2,362.859,15,26,1,-67.902222921178,-67.566920269359,0.000225918284,-67.63427780581,10.891750671687,10.655590211828,0.00183727584,10.107806418898,0.314560818788,-10.0289,-7.5686,2.460361207643,2.177,279.839572,0.747 -0.071 0.412,0.008888387,0.005364543,0.003703737
3-0066,monoCl,BJGBDEPLRWYLBU-UHFFFAOYSA-N,c1c(Cl)cc2c(c1)ccc1c2c2c3ccccc3ccc2c2c1cccc2,C26H15Cl,r2scan,362.859,15,26,1,-1459.804496079353,-1459.4613032644,0.0002170413,-1459.5260141409,8.593809236657,8.3497566016,0.0019726621,7.7616072518,0.3232424534,-5.3005,-2.39,2.9105,1.93741,341.41226,0.64795 -0.08690 0.39190,0.008647,0.005322,0.003644
3-0066,monoCl,BJGBDEPLRWYLBU-UHFFFAOYSA-N,c1c(Cl)cc2c(c1)ccc1c2c2c3ccccc3ccc2c2c1cccc2,C26H15Cl,d4tzvp,362.859,15,26,1,-1460.894885549806,-1460.5516927348,0.0002170413,-1460.6164036113,8.474052247768,8.2299996124,0.0019726621,7.6418502641,0.3232424534,-7.812,0.0143,7.8263,1.99805,328.57463,0.66996 -0.10213 0.39829,0.008647,0.005322,0.003644
3-0067,monoCl,BJVQZZWELYZQMJ-UHFFFAOYSA-N,c1cc(Cl)c2-c3c4c(-c2c1)cccc4cc1c3c2ccccc2cc1,C24H13Cl,xtb2,336.821,13,24,1,-62.592972110559,-62.293195364202,0.000210729484,-62.356024359867,9.95605813167,9.745981463753,0.001663182334,9.250103649627,0.281099830673,-9.9695,-8.0396,1.929825637905,1.513,257.200173,-0.323 -0.385 0.319,0.01058363,0.007284571,0.004619619
3-0067,monoCl,BJVQZZWELYZQMJ-UHFFFAOYSA-N,c1cc(Cl)c2-c3c4c(-c2c1)cccc4cc1c3c2ccccc2cc1,C24H13Cl,r2scan,336.821,13,24,1,-1382.389698358892,-1382.0830886498,0.0002035302,-1382.1437711847,7.837987062102,7.621075611,0.001785457,7.0887414648,0.2885943691,-5.2042,-2.9968,2.2074,1.34523,318.98116,-0.32228 -0.30072 0.29291,0.010294,0.007168,0.004561
3-0067,monoCl,BJVQZZWELYZQMJ-UHFFFAOYSA-N,c1cc(Cl)c2-c3c4c(-c2c1)cccc4cc1c3c2ccccc2cc1,C24H13Cl,d4tzvp,336.821,13,24,1,-1383.39152863712,-1383.084918928,0.0002035302,-1383.1456014629,7.726376305328,7.509464854,0.001785457,6.9771307091,0.2885943691,-7.6799,-0.7348,6.9451,1.47484,307.18017,-0.40926 -0.28939 0.29229,0.010294,0.007168,0.004561
3-0068,monoCl,BKQOUVKBSMUBNH-UHFFFAOYSA-N,c1ccc2c(c1)ccc1c2c2ccccc2c2c1cc(c1c2cccc1)Cl,C26H15Cl,xtb2,362.859,15,26,1,-67.900867478311,-67.565240417014,0.000224275451,-67.632108142806,10.89039522882,10.653910359483,0.001838918673,10.105636755894,0.315028703469,-10.0913,-7.4977,2.593596527177,2.091,279.822317,-0.439 0.655 -0.233,0.01056558,0.004279956,0.003258397
3-0068,monoCl,BKQOUVKBSMUBNH-UHFFFAOYSA-N,c1ccc2c(c1)ccc1c2c2ccccc2c2c1cc(c1c2cccc1)Cl,C26H15Cl,r2scan,362.859,15,26,1,-1459.803595320917,-1459.4599677445,0.0002167678,-1459.5245970566,8.592908478221,8.3484210817,0.0019729356,7.7601901675,0.3238053026,-5.3362,-2.45,2.8862,1.86909,351.18538,-0.37502 0.58792 -0.23333,0.010394,0.004242,0.003212
3-0068,monoCl,BKQOUVKBSMUBNH-UHFFFAOYSA-N,c1ccc2c(c1)ccc1c2c2ccccc2c2c1cc(c1c2cccc1)Cl,C26H15Cl,d4tzvp,362.859,15,26,1,-1460.894056667176,-1460.5504290908,0.0002167678,-1460.6150584029,8.473223365138,8.2287359684,0.0019729356,7.6405050557,0.3238053026,-7.8405,-0.0806,7.7599,1.8708,336.01626,-0.38079 0.58705 -0.22822,0.010394,0.004242,0.003212
3-0069,monoCl,BLMNVRPAXFIOGA-UHFFFAOYSA-N,c1ccc2c(c1)ccc1-c3c4c(-c21)cc(Cl)cc4cc1c3cccc1,C24H13Cl,xtb2,336.821,13,24,1,-62.593270206603,-62.293642769571,0.000215412404,-62.357867977805,9.956356227714,9.746428869122,0.001658499414,9.251947267565,0.280481949773,-10.0268,-8.3488,1.678064713897,2.235,257.16456,-0.383 -0.791 0.000,0.008661716,0.005949802,0.003527046
3-0069,monoCl,BLMNVRPAXFIOGA-UHFFFAOYSA-N,c1ccc2c(c1)ccc1-c3c4c(-c21)cc(Cl)cc4cc1c3cccc1,C24H13Cl,r2scan,336.821,13,24,1,-1382.396377550282,-1382.0905667959,0.0002102592,-1382.1532555884,7.844666253492,7.6285537571,0.001778728,7.0982258685,0.2870444162,-5.2541,-3.2964,1.9577,2.12622,334.668,-0.37498 -0.74774 0.00005,0.008579,0.005903,0.003497
3-0069,monoCl,BLMNVRPAXFIOGA-UHFFFAOYSA-N,c1ccc2c(c1)ccc1-c3c4c(-c21)cc(Cl)cc4cc1c3cccc1,C24H13Cl,d4tzvp,336.821,13,24,1,-1383.396986012014,-1383.0911752576,0.0002102592,-1383.1538640501,7.731833680222,7.5157211836,0.001778728,6.9853932963,0.2870444162,-7.7347,-1.0579,6.6768,2.1094,320.98464,-0.34828 -0.75327 0.00003,0.008579,0.005903,0.003497
3-0070,monoCl,BMMACUDUKQAEGN-UHFFFAOYSA-N,c1ccc2c(c1)cc1-c3cccc4c3c(-c1c2)cc1c4cccc1Cl,C24H13Cl,xtb2,336.821,13,24,1,-62.60813127396,-62.308167635475,0.000213511025,-62.37182594755,9.971217295071,9.760953735026,0.001660400793,9.26590523731,0.28108248542,-10.089,-7.7531,2.335855689715,1.79,257.181294,-0.042 -0.703 -0.000,0.01311533,0.004243747,0.003206285
3-0070,monoCl,BMMACUDUKQAEGN-UHFFFAOYSA-N,c1ccc2c(c1)cc1-c3cccc4c3c(-c1c2)cc1c4cccc1Cl,C24H13Cl,r2scan,336.821,13,24,1,-1382.411882572727,-1382.1059775806,0.0002055593,-1382.1672650921,7.860171275937,7.6439645418,0.0017834279,7.1122353722,0.2874189969,-5.3132,-2.6637,2.6495,1.69876,341.08936,-0.05960 -0.66567 0.00000,0.012963,0.004204,0.003175
3-0070,monoCl,BMMACUDUKQAEGN-UHFFFAOYSA-N,c1ccc2c(c1)cc1-c3cccc4c3c(-c1c2)cc1c4cccc1Cl,C24H13Cl,d4tzvp,336.821,13,24,1,-1383.415450124314,-1383.1095451322,0.0002055593,-1383.1708326437,7.750297792522,7.5340910582,0.0017834279,7.0023618899,0.2874189969,-7.823,-0.319,7.504,1.71398,322.781,-0.08887 -0.66844 0.00000,0.012963,0.004204,0.003175
3-0071,monoCl,BMQDAYYFWTWVKT-UHFFFAOYSA-N,c1ccc2c(c1)c1-c3c4cccc(c4cc4c3c(-c1cc2)ccc4)Cl,C24H13Cl,xtb2,336.821,13,24,1,-62.588389346541,-62.288561472717,0.000212133296,-62.351809014899,9.951475367652,9.741347572268,0.001661778522,9.245888304659,0.281057159514,-9.8958,-8.2932,1.602593394341,1.473,257.113903,0.484 0.281 0.152,0.01096253,0.005636766,0.003790565
3-0071,monoCl,BMQDAYYFWTWVKT-UHFFFAOYSA-N,c1ccc2c(c1)c1-c3c4cccc(c4cc4c3c(-c1cc2)ccc4)Cl,C24H13Cl,r2scan,336.821,13,24,1,-1382.389651076395,-1382.0829729242,0.0002050708,-1382.1441147902,7.837939779605,7.6209598854,0.0017839164,7.0890850703,0.2885373386,-5.1471,-3.2495,1.8976,1.29452,326.99895,0.41032 0.26875 0.13708,0.010932,0.005527,0.003734
3-0071,monoCl,BMQDAYYFWTWVKT-UHFFFAOYSA-N,c1ccc2c(c1)c1-c3c4cccc(c4cc4c3c(-c1cc2)ccc4)Cl,C24H13Cl,d4tzvp,336.821,13,24,1,-1383.389122443375,-1383.0824442912,0.0002050708,-1383.1435861572002,7.723970111583,7.5069902172,0.0017839164,6.9751154034,0.2885373386,-7.6173,-1.0131,6.6042,1.40123,315.349,0.45365 0.27881 0.14273,0.010932,0.005527,0.003734
3-0072,monoCl,BOFXFUCILPVYNC-UHFFFAOYSA-N,c1ccc2c(c1)ccc1c2cc2c3ccc4c(c3ccc2c1)cc(cc4)Cl,C26H15Cl,xtb2,362.859,15,26,1,-67.910693658066,-67.575396017052,0.000228830307,-67.643621773034,10.900221408575,10.664065959521,0.001834363817,10.117150386122,0.314361821985,-10.0192,-7.7062,2.312990592036,2.437,279.843966,-0.885 0.369 0.001,0.01901514,0.002447825,0.002168654
3-0072,monoCl,BOFXFUCILPVYNC-UHFFFAOYSA-N,c1ccc2c(c1)ccc1c2cc2c3ccc4c(c3ccc2c1)cc(cc4)Cl,C26H15Cl,r2scan,362.859,15,26,1,-1459.819036802501,-1459.4767398949,0.0002213644,-1459.5427396918,8.608349959805,8.3651932321,0.001968339,7.7783328027,0.3219376111,-5.2505,-2.5912,2.6593,2.305,377.86615,-0.81394 0.39982 0.00018,0.018809,0.002431,0.002153
3-0072,monoCl,BOFXFUCILPVYNC-UHFFFAOYSA-N,c1ccc2c(c1)ccc1c2cc2c3ccc4c(c3ccc2c1)cc(cc4)Cl,C26H15Cl,d4tzvp,362.859,15,26,1,-1460.90831233578,-1460.5660154282,0.0002213644,-1460.6320152251,8.487479033742,8.2443223058,0.001968339,7.6574618779,0.3219376111,-7.7225,-0.2227,7.4998,2.27647,356.63072,-0.80438 0.39383 0.00019,0.018809,0.002431,0.002153
3-0073,monoCl,BOKHPUNMMLQZKE-UHFFFAOYSA-N,c1c2c(cc3c(c2)ccc(c3)Cl)c2c(c1)c1c(cc2)cc2c(c1)cccc2,C26H15Cl,xtb2,362.859,15,26,1,-67.903322007207,-67.568478178324,0.000228512411,-67.636609153631,10.892849757716,10.657148120793,0.001834681713,10.110137766719,0.31392368085,-9.8313,-7.9485,1.882839477267,2.51,279.851862,0.850 0.503 -0.000,0.02388637,0.002137906,0.001962276
3-0073,monoCl,BOKHPUNMMLQZKE-UHFFFAOYSA-N,c1c2c(cc3c(c2)ccc(c3)Cl)c2c(c1)c1c(cc2)cc2c(c1)cccc2,C26H15Cl,r2scan,362.859,15,26,1,-1459.810818756815,-1459.46882464,0.0002206006,-1459.5345967136,8.600131914119,8.3572779772,0.0019691028,7.7701898245,0.3216840098,-5.0161,-2.851,2.1651,2.31525,398.7041,0.76260 0.49813 -0.00003,0.023584,0.002124,0.001949
3-0073,monoCl,BOKHPUNMMLQZKE-UHFFFAOYSA-N,c1c2c(cc3c(c2)ccc(c3)Cl)c2c(c1)c1c(cc2)cc2c(c1)cccc2,C26H15Cl,d4tzvp,362.859,15,26,1,-1460.895997438236,-1460.5540033214002,0.0002206006,-1460.619775395,8.475164136198,8.232310199,0.0019691028,7.6452220478,0.3216840098,-7.4206,-0.5412,6.8794,2.31303,374.55881,0.75757 0.50416 -0.00002,0.023584,0.002124,0.001949
3-0074,monoCl,BOPYMAMMQFHKFG-UHFFFAOYSA-N,c1ccc2c(c1)ccc1c2c2c3ccccc3ccc2cc1Cl,C22H13Cl,xtb2,312.799,13,22,1,-58.306113438202,-58.019070542019,0.000205079512,-58.080214998407,9.255792202043,9.05372832754,0.00156242605,8.587890999537,0.269292432242,-10.184,-7.467,2.717036173127,2.054,239.892953,-0.281 -0.747 0.127,0.01051802,0.008336306,0.004959484
3-0074,monoCl,BOPYMAMMQFHKFG-UHFFFAOYSA-N,c1ccc2c(c1)ccc1c2c2c3ccccc3ccc2cc1Cl,C22H13Cl,r2scan,312.799,13,22,1,-1306.193629151392,-1305.8996973696,0.0001974959,-1305.9585807651,7.306350029138,7.0973955444,0.0016780789,6.5970761786,0.2768911415,-5.4579,-2.357,3.1009,1.93344,285.00326,-0.23753 -0.71485 0.10569,0.010336,0.008219,0.00488
3-0074,monoCl,BOPYMAMMQFHKFG-UHFFFAOYSA-N,c1ccc2c(c1)ccc1c2c2c3ccccc3ccc2cc1Cl,C22H13Cl,d4tzvp,312.799,13,22,1,-1307.123574990344,-1306.8296432085,0.0001974959,-1306.888526604,7.204044574118,6.9950900891,0.0016780789,6.4947707246,0.2768911415,-8.0288,0.0685,8.0973,1.9259,275.8179,-0.26348 -0.70216 0.10788,0.010336,0.008219,0.00488
3-0075,monoCl,BOYGCFNADZBRBX-UHFFFAOYSA-N,c1ccc2c(c1)ccc1c2cc(Cl)c2c1ccc1c2ccc2c1cccc2,C26H15Cl,xtb2,362.859,15,26,1,-67.903697389115,-67.568192783218,0.000226821633,-67.635819653021,10.893225139624,10.656862725687,0.001836372491,10.109348266109,0.314664065176,-10.0213,-7.6056,2.415705286793,1.754,279.866579,-0.164 0.640 0.198,0.01717096,0.003045065,0.002621347
3-0075,monoCl,BOYGCFNADZBRBX-UHFFFAOYSA-N,c1ccc2c(c1)ccc1c2cc(Cl)c2c1ccc1c2ccc2c1cccc2,C26H15Cl,r2scan,362.859,15,26,1,-1459.807329019557,-1459.4643395966,0.0002193782,-1459.5297472178,8.596642176861,8.3527929338,0.0019703252,7.7653403287,0.3228158423,-5.2987,-2.4194,2.8793,1.64163,369.97605,-0.17931 0.58230 0.21425,0.016836,0.003018,0.002592
3-0075,monoCl,BOYGCFNADZBRBX-UHFFFAOYSA-N,c1ccc2c(c1)ccc1c2cc(Cl)c2c1ccc1c2ccc2c1cccc2,C26H15Cl,d4tzvp,362.859,15,26,1,-1460.898281747464,-1460.5552923245,0.0002193782,-1460.6206999457,8.477448445426,8.2335992021,0.0019703252,7.6461465985,0.3228158423,-7.8093,-0.0256,7.7837,1.7154,351.68733,-0.22617 0.59797 0.21619,0.016836,0.003018,0.002592
3-0076,monoCl,BPKZIGHXVCIKOA-UHFFFAOYSA-N,c1ccc2c(c1)c1c(cc2)ccc2c1c1c(cc2)ccc2c1c(Cl)ccc2,C26H15Cl,xtb2,362.859,15,26,1,-67.898583602501,-67.563921265489,0.000222661617,-67.630307826518,10.88811135301,10.652591207958,0.001840532507,10.103836439606,0.314146504167,-9.9944,-7.4629,2.531494441839,1.353,279.942981,0.299 0.104 0.428,0.008663531,0.008166133,0.00534057
3-0076,monoCl,BPKZIGHXVCIKOA-UHFFFAOYSA-N,c1ccc2c(c1)c1c(cc2)ccc2c1c1c(cc2)ccc2c1c(Cl)ccc2,C26H15Cl,r2scan,362.859,15,26,1,-1459.793108075641,-1459.4505602555,0.0002135322,-1459.5142248855,8.582421232945,8.3390135927,0.0019761712,7.7498179964,0.3228808597,-5.244,-2.4355,2.8085,1.24303,321.39871,0.31290 0.20077 0.31771,0.008463,0.007799,0.00525
3-0076,monoCl,BPKZIGHXVCIKOA-UHFFFAOYSA-N,c1ccc2c(c1)c1c(cc2)ccc2c1c1c(cc2)ccc2c1c(Cl)ccc2,C26H15Cl,d4tzvp,362.859,15,26,1,-1460.882183937861,-1460.5396361178,0.0002135322,-1460.6033007478,8.461350635823,8.2179429954,0.0019761712,7.6287474006,0.3228808597,-7.825,-0.048,7.777,1.30971,311.4415,0.34777 0.19476 0.32654,0.008463,0.007799,0.00525
3-0077,monoCl,BPPDXSWJCAFOMA-UHFFFAOYSA-N,Clc1ccc2-c3c(-c4c2c1ccc4)c1ccccc1c1c3cccc1,C24H13Cl,xtb2,336.821,13,24,1,-62.597270964453,-62.296953603724,0.000215323623,-62.36115234199,9.960356985564,9.749739703275,0.001658588195,9.25523163175,0.28118504222,-10.0034,-8.1415,1.861855925431,1.41,257.176573,0.530 0.163 0.019,0.01271721,0.004955268,0.00357791
3-0077,monoCl,BPPDXSWJCAFOMA-UHFFFAOYSA-N,Clc1ccc2-c3c(-c4c2c1ccc4)c1ccccc1c1c3cccc1,C24H13Cl,r2scan,336.821,13,24,1,-1382.401087929061,-1382.0947708279,0.0002109319,-1382.1576601857,7.849376632271,7.6327577891,0.0017780553,7.1026304658,0.287498663,-5.2739,-3.0812,2.1927,1.37851,321.26653,0.52108 0.14972 0.01381,0.01262,0.004906,0.003538
3-0077,monoCl,BPPDXSWJCAFOMA-UHFFFAOYSA-N,Clc1ccc2-c3c(-c4c2c1ccc4)c1ccccc1c1c3cccc1,C24H13Cl,d4tzvp,336.821,13,24,1,-1383.406454271036,-1383.1001371698,0.0002109319,-1383.1630265276,7.741301939244,7.5246830958,0.0017780553,6.9945557738,0.287498663,-7.8389,-0.7953,7.0436,1.55201,307.36723,0.59132 0.15158 0.01388,0.01262,0.004906,0.003538
3-0078,monoCl,BPQXAVFERMTIET-UHFFFAOYSA-N,c1cc(Cl)c2c(c1)ccc1-c3c4c(-c21)cccc4ccc3,C20H11Cl,xtb2,286.761,11,20,1,-52.995787716746,-52.744020644014,0.000191693402,-52.801174031781,8.319024751189,8.142794586617,0.001386529854,7.729400709583,0.235871701027,-10.0455,-7.9744,2.071121482251,1.533,217.174508,-0.107 0.524 0.278,0.01860742,0.008069432,0.005802266
3-0078,monoCl,BPQXAVFERMTIET-UHFFFAOYSA-N,c1cc(Cl)c2c(c1)ccc1-c3c4c(-c21)cccc4ccc3,C20H11Cl,r2scan,286.761,11,20,1,-1228.780837442019,-1228.5233054662,0.0001861769,-1228.5788141196,6.552533865671,6.370537265,0.0014886817,5.9266867023,0.2421819824,-5.2879,-2.8978,2.3901,1.49493,261.78234,-0.05655 0.49117 0.31853,0.018379,0.007906,0.005703
3-0078,monoCl,BPQXAVFERMTIET-UHFFFAOYSA-N,c1cc(Cl)c2c(c1)ccc1-c3c4c(-c21)cccc4ccc3,C20H11Cl,d4tzvp,286.761,11,20,1,-1229.624391521526,-1229.3668595457002,0.0001861769,-1229.4223681991002,6.460542075546,6.2785454747,0.0014886817,5.8346949131,0.2421819824,-7.9307,-0.5702,7.3605,1.54532,253.24234,0.04930 0.51057 0.32636,0.018379,0.007906,0.005703
3-0079,monoCl,BPWXVVVMZHNYFC-UHFFFAOYSA-N,c1cc2c(cc1)c(Cl)c1-c3c4c(-c1c2)cc1ccccc1c4ccc3,C24H13Cl,xtb2,336.821,13,24,1,-62.608596739299,-62.308471935281,0.000213223611,-62.372044554967,9.97168276041,9.761258034832,0.001660688207,9.266123844727,0.281228119344,-10.0705,-7.7324,2.338097334703,1.921,257.20242,-0.360 0.664 -0.000,0.01542609,0.004312816,0.003370495
3-0079,monoCl,BPWXVVVMZHNYFC-UHFFFAOYSA-N,c1cc2c(cc1)c(Cl)c1-c3c4c(-c1c2)cc1ccccc1c4ccc3,C24H13Cl,r2scan,336.821,13,24,1,-1382.412320618575,-1382.1061237982,0.0002075542,-1382.1680060787,7.860609321785,7.6441107594,0.001781433,7.1129763588,0.2877267259,-5.2993,-2.6302,2.6691,1.73686,339.1649,-0.34961 0.58711 -0.00000,0.015192,0.004281,0.00334