id,subset,key,smiles,formula,level,mwt,nH,nC,nCl,E,H,S,G,dE,dH,dS,dG,zpe,homo,lumo,gap,Mu,alpha,tMu,rotA,rotB,rotC
2-0096,pubchemPCH,FLNDZGIZTQZZGN-UHFFFAOYSA-N,Clc1c(Cl)cc2c(c1Cl)cc1c(c2)cccc1Cl,C14H6Cl4,r2scan,316.014,6,14,4,-2377.716243738942,-2377.5465951772,0.0001919466,-2377.6038240576,4.625615249268,4.5126182188,0.0011061064,4.1828324708,0.1539567324,-5.5534,-3.1698,2.3836,3.60599,237.87847,-0.96535 -1.03959 -0.00017,0.018392,0.005553,0.004265
2-0096,pubchemPCH,FLNDZGIZTQZZGN-UHFFFAOYSA-N,Clc1c(Cl)cc2c(c1Cl)cc1c(c2)cccc1Cl,C14H6Cl4,d4tzvp,316.014,6,14,4,-2378.43285602523,-2378.2632074635,0.0001919466,-2378.3204363439,4.574103493908,4.4611064635,0.0011061064,4.1313207161,0.1539567324,-8.1163,-0.7967,7.3196,3.81185,229.00404,-1.03901 -1.08141 -0.00017,0.018392,0.005553,0.004265
2-0097,pubchemPCH,FOSDKKOJRFXMNS-UHFFFAOYSA-N,Clc1cc(Cl)c2c3c1cc(Cl)c1c3c(c(c2)Cl)c(cc1Cl)Cl,C16H4Cl6,xtb2,408.926,4,16,6,-63.667752958237,-63.504936766686,0.000223387051,-63.571539615923,6.505929150887,6.404486697216,0.001143669623,6.063501598337,0.143105173663,-10.581,-8.6626,1.918378085999,0.694,239.307401,0.273 0.000 -0.000,0.006533094,0.005601653,0.003015813
2-0097,pubchemPCH,FOSDKKOJRFXMNS-UHFFFAOYSA-N,Clc1cc(Cl)c2c3c1cc(Cl)c1c3c(c(c2)Cl)c(cc1Cl)Cl,C16H4Cl6,r2scan,408.926,4,16,6,-3373.082347295756,-3372.9165258676,0.0002183162,-3372.9816168286,5.09384342601,4.98939449,0.0012269728,4.6235723714,0.1464519244,-5.6901,-3.3449,2.3452,0.73948,297.19177,0.29093 0.00015 0.00016,0.006468,0.005501,0.003013
2-0097,pubchemPCH,FOSDKKOJRFXMNS-UHFFFAOYSA-N,Clc1cc(Cl)c2c3c1cc(Cl)c1c3c(c(c2)Cl)c(cc1Cl)Cl,C16H4Cl6,d4tzvp,408.926,4,16,6,-3373.942550779184,-3373.776729351,0.0002183162,-3373.841820312,5.043624407816,4.939175472,0.0012269728,4.5733533538,0.1464519244,-8.1406,-1.141,6.9996,0.88544,284.09815,0.34835 0.00001 0.00032,0.006468,0.005501,0.003013
2-0098,pubchemPCH,FQELOCOACCYGLL-UHFFFAOYSA-N,Clc1cc(Cl)c2c(c1Cl)cc(c(c2Cl)Cl)Cl,C10H2Cl6,xtb2,334.844,2,10,6,-49.759114393026,-49.65770290332,0.00019894891,-49.717019520976,4.144034341738,4.085112362872,0.000766012946,3.856725602802,0.0853888503,-10.9931,-8.5177,2.475433527011,0.76,182.400032,0.297 0.031 0.000,0.0129539,0.0073351,0.004683235
2-0098,pubchemPCH,FQELOCOACCYGLL-UHFFFAOYSA-N,Clc1cc(Cl)c2c(c1Cl)cc(c(c2Cl)Cl)Cl,C10H2Cl6,r2scan,334.844,2,10,6,-3143.25130315547,-3143.1476214093,0.0001928808,-3143.2051288287,3.250639180702,3.1894460829,0.0008248672,2.9435118075,0.0881656138,-6.124,-3.0869,3.0371,0.73229,204.93689,0.28250 0.05537 -0.01126,0.012664,0.007242,0.004636
2-0098,pubchemPCH,FQELOCOACCYGLL-UHFFFAOYSA-N,Clc1cc(Cl)c2c(c1Cl)cc(c(c2Cl)Cl)Cl,C10H2Cl6,d4tzvp,334.844,2,10,6,-3143.883647912741,-3143.7799661665,0.0001928808,-3143.8374735859,3.231646342751,3.1704532451,0.0008248672,2.9245189699,0.0881656138,-8.877,-0.6285,8.2485,0.87781,196.86364,0.33740 0.07250 -0.01317,0.012664,0.007242,0.004636
2-0099,pubchemPCH,FUEZTEBYLIMNHN-UHFFFAOYSA-N,c1ccc(c2c1cc(Cl)c(c2)Cl)Cl,C10H5Cl3,xtb2,231.509,5,10,3,-37.62669086647,-37.500370364854,0.000167120617,-37.550197376806,4.278737928257,4.194906937481,0.000747128051,3.97215070869,0.114320549864,-10.8056,-7.9094,2.896171270459,2.94,144.635416,0.864 0.770 0.000,0.03131588,0.01219267,0.008775845
2-0099,pubchemPCH,FUEZTEBYLIMNHN-UHFFFAOYSA-N,c1ccc(c2c1cc(Cl)c(c2)Cl)Cl,C10H5Cl3,r2scan,231.509,5,10,3,-1764.534961129719,-1764.4057876599,0.0001630968,-1764.4544149824,3.384461963255,3.2977771419,0.0008039158,3.0580895667,0.1175592834,-5.9876,-2.5939,3.3937,2.84468,158.33329,0.82695 0.75410 0.00002,0.030682,0.012072,0.008663
2-0099,pubchemPCH,FUEZTEBYLIMNHN-UHFFFAOYSA-N,c1ccc(c2c1cc(Cl)c(c2)Cl)Cl,C10H5Cl3,d4tzvp,231.509,5,10,3,-1765.058327485214,-1764.9291540154,0.0001630968,-1764.9777813379,3.348153801944,3.2614689806,0.0008039158,3.0217814059,0.1175592834,-8.7576,-0.042,8.7156,2.99426,154.60317,0.88414 0.77846 0.00002,0.030682,0.012072,0.008663
2-0100,pubchemPCH,FVAAOTHBKVTIJI-UHFFFAOYSA-N,c1c2c(Cl)c(Cl)ccc2c2c(c1)c(Cl)c(cc2)Cl,C14H6Cl4,xtb2,316.014,6,14,4,-51.271909879784,-51.105551770736,0.000196279053,-51.164072370306,5.874763557214,5.765058129286,0.001030562573,5.457795897462,0.150112654595,-10.8474,-7.972,2.875393569944,2.182,196.973329,-0.000 -0.859 0.000,0.02626582,0.004481482,0.003828297
2-0100,pubchemPCH,FVAAOTHBKVTIJI-UHFFFAOYSA-N,c1c2c(Cl)c(Cl)ccc2c2c(c1)c(Cl)c(cc2)Cl,C14H6Cl4,r2scan,316.014,6,14,4,-2377.723898192335,-2377.5539929145,0.0001905086,-2377.6107930574,4.633269702661,4.5200159561,0.0011075444,4.1898014706,0.1541199603,-6.1018,-2.65,3.4518,2.03857,230.99649,-0.00001 -0.80202 0.00003,0.02576,0.004435,0.003784
2-0100,pubchemPCH,FVAAOTHBKVTIJI-UHFFFAOYSA-N,c1c2c(Cl)c(Cl)ccc2c2c(c1)c(Cl)c(cc2)Cl,C14H6Cl4,d4tzvp,316.014,6,14,4,-2378.444143744252,-2378.2742384665003,0.0001905086,-2378.3310386094,4.58539121293,4.4721374665,0.0011075444,4.1419229816,0.1541199603,-8.7957,-0.1416,8.6541,2.11328,222.16778,-0.00001 -0.83141 0.00003,0.02576,0.004435,0.003784
2-0101,pubchemPCH,FVGIGJCPMHGKGZ-UHFFFAOYSA-N,c1ccc2-c3c4c(-c2c1)cc(Cl)c(c4ccc3)Cl,C16H8Cl2,xtb2,271.146,8,16,2,-47.460328931968,-47.264766595666,0.000183873449,-47.319588464459,6.654674608718,6.520486010296,0.001115565641,6.187880113617,0.181053154696,-10.5062,-8.1482,2.357991306608,3.002,189.619359,-1.063 -0.515 -0.000,0.02168864,0.008483978,0.006098442
2-0101,pubchemPCH,FVGIGJCPMHGKGZ-UHFFFAOYSA-N,c1ccc2-c3c4c(-c2c1)cc(Cl)c(c4ccc3)Cl,C16H8Cl2,r2scan,271.146,8,16,2,-1534.763968476277,-1534.5643897676,0.0001794579,-1534.6178951392,5.242351017603,5.1041448012,0.0011981839,4.746906156,0.1854205268,-5.7804,-2.9731,2.8073,2.72173,222.89531,-0.96040 -0.47352 -0.00008,0.021378,0.008416,0.006039
2-0101,pubchemPCH,FVGIGJCPMHGKGZ-UHFFFAOYSA-N,c1ccc2-c3c4c(-c2c1)cc(Cl)c(c4ccc3)Cl,C16H8Cl2,d4tzvp,271.146,8,16,2,-1535.485868811692,-1535.2862901029998,0.0001794579,-1535.3397954746,5.176046289284,5.0378400728,0.0011981839,4.6806014284,0.1854205268,-8.4447,-0.5924,7.8523,2.88514,215.734,-1.03040 -0.47611 -0.00009,0.021378,0.008416,0.006039
2-0102,pubchemPCH,GBDZXPJXOMHESU-UHFFFAOYSA-N,c1c(Cl)c(Cl)c(c(c1)Cl)Cl,C6H2Cl4,xtb2,215.894,2,6,4,-32.072125698616,-32.00218095661,0.000155380782,-32.048507736802,2.59528140271,2.553663001264,0.00048008372,2.410526040042,0.059405884734,-11.2382,-7.5369,3.701330844777,1.9,117.478309,-0.000 -0.748 0.000,0.03891835,0.01819678,0.01239932
2-0102,pubchemPCH,GBDZXPJXOMHESU-UHFFFAOYSA-N,c1c(Cl)c(Cl)c(c(c1)Cl)Cl,C6H2Cl4,r2scan,215.894,2,6,4,-2070.497707476562,-2070.4259695073,0.0001509482,-2070.4709747079,2.053894427772,2.0104822241,0.0005188476,1.8557877263,0.0616430714,-6.5474,-2.0265,4.5209,1.87239,118.19258,-0.00003 -0.73664 0.00001,0.038163,0.017909,0.012189
2-0102,pubchemPCH,GBDZXPJXOMHESU-UHFFFAOYSA-N,c1c(Cl)c(Cl)c(c(c1)Cl)Cl,C6H2Cl4,d4tzvp,215.894,2,6,4,-2070.89979558211,-2070.8280576128,0.0001509482,-2070.8730628134,2.043648822412,2.0002366188,0.0005188476,1.8455421212,0.0616430714,-9.5535,0.6752,10.2287,1.97824,115.40794,-0.00004 -0.77828 0.00001,0.038163,0.017909,0.012189
2-0103,pubchemPCH,GDDKQVAJSLJNMQ-UHFFFAOYSA-N,Clc1c2c(c(c3c1c(Cl)c(c(c3Cl)Cl)Cl)Cl)c(Cl)c1c(c2Cl)c(Cl)c(c(c1Cl)Cl)Cl,C18Cl12,xtb2,641.634,0,18,12,-93.180564977839,-93.033666246287,0.000293928972,-93.121301169369,7.110928673737,7.034845793585,0.001363836384,6.628217974995,0.117214124299,-10.6825,-9.4744,1.208025420321,0.0,337.920838,-0.000 0.000 0.000,0.00510584,0.001629561,0.001259544
2-0103,pubchemPCH,GDDKQVAJSLJNMQ-UHFFFAOYSA-N,Clc1c2c(c(c3c1c(Cl)c(c(c3Cl)Cl)Cl)Cl)c(Cl)c1c(c2Cl)c(Cl)c(c(c1Cl)Cl)Cl,C18Cl12,r2scan,641.634,0,18,12,-6207.844052481203,-6207.6940927762,0.0002821986,-6207.7782302959,5.496243448943,5.4170981578,0.0014652774,4.9802254585,0.1213680011,-5.6334,-4.3131,1.3203,0.00013,439.91591,-0.00001 0.00005 -0.00000,0.005054,0.001615,0.001259
2-0103,pubchemPCH,GDDKQVAJSLJNMQ-UHFFFAOYSA-N,Clc1c2c(c(c3c1c(Cl)c(c(c3Cl)Cl)Cl)Cl)c(Cl)c1c(c2Cl)c(Cl)c(c(c1Cl)Cl)Cl,C18Cl12,d4tzvp,641.634,0,18,12,-6209.003236643029,-6208.853276937999,0.0002821986,-6208.9374144577,5.464973527975,5.3858282374,0.0014652774,4.9489555381,0.1213680011,-8.0543,-2.2473,5.807,9E-05,414.48485,-0.00002 0.00003 -0.00001,0.005054,0.001615,0.001259
2-0104,pubchemPCH,GEYDEIDXDHSFPX-UHFFFAOYSA-N,c1c(Cl)cc2c(c1)c1ccc3c(c1cc2)cccc3,C18H11Cl,xtb2,262.739,11,18,1,-48.719824966448,-48.480634143218,0.000187282489,-48.536472417412,7.629654743621,7.461279771791,0.001284534511,7.078295806584,0.224016993355,-10.261,-7.5357,2.725332993691,2.4,199.891489,-0.941 -0.077 0.000,0.04234931,0.005427765,0.004811138
2-0104,pubchemPCH,GEYDEIDXDHSFPX-UHFFFAOYSA-N,c1c(Cl)cc2c(c1)c1ccc3c(c1cc2)cccc3,C18H11Cl,r2scan,262.739,11,18,1,-1152.59851155922,-1152.3541878513,0.0001824685,-1152.4085908468,6.034640157408,5.8611308637,0.0013789777,5.4499885629,0.2296096802,-5.5168,-2.311,3.2058,2.21783,243.5245,-0.86859 -0.08300 -0.00002,0.041917,0.005382,0.00477
2-0104,pubchemPCH,GEYDEIDXDHSFPX-UHFFFAOYSA-N,c1c(Cl)cc2c(c1)c1ccc3c(c1cc2)cccc3,C18H11Cl,d4tzvp,262.739,11,18,1,-1153.370120871916,-1153.125797164,0.0001824685,-1153.1802001595,5.951893341502,5.7783840476,0.0013789777,5.3672417479,0.2296096802,-8.0929,0.1558,8.2487,2.23422,235.53277,-0.87514 -0.08219 -0.00002,0.041917,0.005382,0.00477
2-0105,pubchemPCH,GFAZZPZAZVPWDH-UHFFFAOYSA-N,c1c(Cl)cc2-c3c(-c2c1)cc1c(c3)cccc1,C16H9Cl,xtb2,236.701,9,16,1,-43.346897171363,-43.143929345371,0.000176113804,-43.196437676061,6.630285219138,6.488691131026,0.00110642089,6.158811741905,0.18943372385,-10.2376,-7.444,2.793619440983,2.094,174.539829,0.770 0.293 0.000,0.05777409,0.006171287,0.005575704
2-0105,pubchemPCH,GFAZZPZAZVPWDH-UHFFFAOYSA-N,c1c(Cl)cc2-c3c(-c2c1)cc1c(c3)cccc1,C16H9Cl,r2scan,236.701,9,16,1,-1075.114218299902,-1074.9073112164,0.0001723503,-1074.958697446,5.209322443996,5.0637878528,0.0011883797,4.7094723313,0.1937151134,-5.4102,-2.3217,3.0885,1.75676,227.28472,0.62668 0.29147 -0.00001,0.057236,0.006094,0.005508
2-0105,pubchemPCH,GFAZZPZAZVPWDH-UHFFFAOYSA-N,c1c(Cl)cc2-c3c(-c2c1)cc1c(c3)cccc1,C16H9Cl,d4tzvp,236.701,9,16,1,-1075.798759446507,-1075.5918523630005,0.0001723503,-1075.6432385926005,5.136212886339,4.990678295,0.0011883797,4.6363627744,0.1937151134,-8.0421,0.1377,8.1798,1.72848,216.32545,0.60857 0.30343 -0.00001,0.057236,0.006094,0.005508
2-0106,pubchemPCH,GFPMKQKLBRXDRS-UHFFFAOYSA-N,c1c2c(cc3c1c1c3c(Cl)c(c(c1Cl)Cl)Cl)c1c2c(Cl)c(c(c1Cl)Cl)Cl,C18H2Cl8,xtb2,501.838,2,18,8,-75.892779487391,-75.735387345,0.000257936807,-75.812291203876,6.966278195261,6.87498084751,0.001249334915,6.502491641548,0.132838056208,-10.6259,-9.0096,1.616286364892,0.001,274.870835,-0.000 0.000 -0.000,0.008478114,0.001638084,0.001372834
2-0106,pubchemPCH,GFPMKQKLBRXDRS-UHFFFAOYSA-N,c1c2c(cc3c1c1c3c(Cl)c(c(c1Cl)Cl)Cl)c1c2c(Cl)c(c(c1Cl)Cl)Cl,C18H2Cl8,r2scan,501.838,2,18,8,-4368.277781836379,-4368.1184240463,0.000249979,-4368.192955277,5.391402586562,5.2981382495,0.001342546,4.8978579494,0.1350128761,-5.4231,-3.6538,1.7693,3E-05,390.05328,0.00000 0.00000 -0.00001,0.008387,0.001634,0.001368
2-0106,pubchemPCH,GFPMKQKLBRXDRS-UHFFFAOYSA-N,c1c2c(cc3c1c1c3c(Cl)c(c(c1Cl)Cl)Cl)c1c2c(Cl)c(c(c1Cl)Cl)Cl,C18H2Cl8,d4tzvp,501.838,2,18,8,-4369.285926946055,-4369.126569155999,0.000249979,-4369.201100386699,5.346826734641,5.253562398,0.001342546,4.8532820981,0.1350128761,-7.9843,-1.1162,6.8681,0.00015,352.43912,-0.00003 -0.00002 -0.00005,0.008387,0.001634,0.001368
2-0107,pubchemPCH,GGOFJXABVRZLJH-UHFFFAOYSA-N,c1c2c(c(Cl)c(c(c2Cl)Cl)Cl)cc2c1cccc2,C14H6Cl4,xtb2,316.014,6,14,4,-51.259558730297,-51.093605650438,0.000196738527,-51.152263242373,5.862412407727,5.753112008988,0.001030103099,5.445986769529,0.149661615236,-10.4608,-8.4011,2.059753163294,3.781,197.355196,-1.487 0.000 0.000,0.01571339,0.006757253,0.004725247
2-0107,pubchemPCH,GGOFJXABVRZLJH-UHFFFAOYSA-N,c1c2c(c(Cl)c(c(c2Cl)Cl)Cl)cc2c1cccc2,C14H6Cl4,r2scan,316.014,6,14,4,-2377.71062441982,-2377.5410121859,0.0001896866,-2377.5975672499,4.619995930146,4.5070352275,0.0011083664,4.1765756631,0.1538694724,-5.5217,-3.1196,2.4021,3.32257,237.03732,-1.30717 0.00005 0.00003,0.015448,0.006715,0.00468
2-0107,pubchemPCH,GGOFJXABVRZLJH-UHFFFAOYSA-N,c1c2c(c(Cl)c(c(c2Cl)Cl)Cl)cc2c1cccc2,C14H6Cl4,d4tzvp,316.014,6,14,4,-2378.428931065215,-2378.2593188313,0.0001896866,-2378.3158738953,4.570178533893,4.4572178313,0.0011083664,4.1267582675,0.1538694724,-8.0842,-0.7561,7.3281,3.43296,228.66455,-1.35060 0.00005 0.00003,0.015448,0.006715,0.00468
2-0108,pubchemPCH,GHWMHILQVLGHIL-UHFFFAOYSA-N,c1c(Cl)ccc2c1cc1c(c2)cccc1Cl,C14H8Cl2,xtb2,247.124,8,14,2,-43.170140834949,-42.987711326724,0.000177251139,-43.040558753863,5.951079254429,5.825302427324,0.001015781695,5.522447114391,0.168898814015,-10.2413,-8.076,2.165306905555,2.842,172.106586,-0.510 -0.995 -0.000,0.03096497,0.007627992,0.006120301
2-0108,pubchemPCH,GHWMHILQVLGHIL-UHFFFAOYSA-N,c1c(Cl)ccc2c1cc1c(c2)cccc1Cl,C14H8Cl2,r2scan,247.124,8,14,2,-1458.562359823743,-1458.3759059857,0.0001725805,-1458.4273608685,4.705174539605,4.5753722329,0.0010916489,4.2498970187,0.1733472698,-5.3694,-2.8977,2.4717,2.78378,206.65074,-0.48068 -0.98408 -0.00005,0.030522,0.007554,0.006055
2-0108,pubchemPCH,GHWMHILQVLGHIL-UHFFFAOYSA-N,c1c(Cl)ccc2c1cc1c(c2)cccc1Cl,C14H8Cl2,d4tzvp,247.124,8,14,2,-1459.206292751456,-1459.0198389135,0.0001725805,-1459.0712937963,4.642092144614,4.5122898379,0.0010916489,4.1868146245,0.1733472698,-7.9255,-0.487,7.4385,2.86093,200.96594,-0.52101 -0.99771 -0.00004,0.030522,0.007554,0.006055
2-0109,pubchemPCH,GJFYXOAKMQTSKP-UHFFFAOYSA-N,Clc1c(Cl)c2cccc3c2c(c1Cl)c1cccc2c1c3ccc2,C20H9Cl3,xtb2,355.651,9,20,3,-61.109998487772,-60.874321915876,0.000211436795,-60.937361796341,8.255150780165,8.095011116429,0.001400595253,7.677423640771,0.217199918056,-10.0697,-8.287,1.782719710211,3.952,242.151513,-1.304 -0.816 0.225,0.01182353,0.005799483,0.003979031
2-0109,pubchemPCH,GJFYXOAKMQTSKP-UHFFFAOYSA-N,Clc1c(Cl)c2cccc3c2c(c1Cl)c1cccc2c1c3ccc2,C20H9Cl3,r2scan,355.651,9,20,3,-2147.952806366898,-2147.7118560175,0.0002040456,-2147.7726922031,6.491059585014,6.3256446107,0.0015046366,5.8770370488,0.2231369487,-5.1485,-3.1138,2.0347,3.41594,298.29164,-1.13233 -0.68255 0.24092,0.011717,0.00572,0.003943
2-0109,pubchemPCH,GJFYXOAKMQTSKP-UHFFFAOYSA-N,Clc1c(Cl)c2cccc3c2c(c1Cl)c1cccc2c1c3ccc2,C20H9Cl3,d4tzvp,355.651,9,20,3,-2148.868821086825,-2148.6278707374,0.0002040456,-2148.688706923,6.410419716365,6.245004742,0.0015046366,5.796397181,0.2231369487,-7.5631,-0.8546,6.7085,3.51679,285.53913,-1.15054 -0.72529 0.25399,0.011717,0.00572,0.003943
2-0110,pubchemPCH,GKVHZORYMSYMKS-UHFFFAOYSA-N,c1cc(Cl)c2c(c1)cc(c1c2cccc1)Cl,C14H8Cl2,xtb2,247.124,8,14,2,-43.168702387249,-42.985810408313,0.00017625294,-43.038360222475,5.949640806729,5.823401508913,0.001016779894,5.520248583003,0.169403657306,-10.5162,-7.5831,2.933059364333,1.033,172.131741,0.355 0.057 -0.190,0.02151747,0.01245923,0.008012086
2-0110,pubchemPCH,GKVHZORYMSYMKS-UHFFFAOYSA-N,c1cc(Cl)c2c(c1)cc(c1c2cccc1)Cl,C14H8Cl2,r2scan,247.124,8,14,2,-1458.557392608918,-1458.3702278537,0.0001717229,-1458.4214270226,4.70020732478,4.5696941009,0.0010925065,4.2439631728,0.1741340323,-5.7374,-2.3322,3.4052,1.00499,193.65726,0.33913 0.03113 -0.20088,0.021235,0.012249,0.007891
2-0110,pubchemPCH,GKVHZORYMSYMKS-UHFFFAOYSA-N,c1cc(Cl)c2c(c1)cc(c1c2cccc1)Cl,C14H8Cl2,d4tzvp,247.124,8,14,2,-1459.205605466133,-1459.0184407109,0.0001717229,-1459.0696398798,4.641404859291,4.5108916353,0.0010925065,4.185160708,0.1741340323,-8.4156,0.1647,8.5803,1.11478,189.39044,0.38469 0.05155 -0.20422,0.021235,0.012249,0.007891
2-0111,pubchemPCH,GLVVZPZGCNEVEM-UHFFFAOYSA-N,c1c(Cl)cc2c(c1)c(Cl)c(cc2Cl)Cl,C10H4Cl4,xtb2,265.954,4,10,4,-41.674978856759,-41.556901834203,0.000178326928,-41.610070007717,4.237983547521,4.162396035805,0.000752826136,3.937940922915,0.104717024229,-10.841,-8.16,2.680926835301,0.479,157.085962,0.126 -0.140 -0.000,0.02171472,0.009465552,0.006592047
2-0111,pubchemPCH,GLVVZPZGCNEVEM-UHFFFAOYSA-N,c1c(Cl)cc2c(c1)c(Cl)c(cc2Cl)Cl,C10H4Cl4,r2scan,265.954,4,10,4,-2224.114658737651,-2223.9938578352,0.0001736175,-2224.0456218781,3.347437968419,3.2691257144,0.0008103069,3.0275325939,0.1078516463,-6.0506,-2.7978,3.2528,0.46903,173.99176,0.07717 -0.16762 -0.00001,0.021338,0.009364,0.006508
2-0111,pubchemPCH,GLVVZPZGCNEVEM-UHFFFAOYSA-N,c1c(Cl)cc2c(c1)c(Cl)c(cc2Cl)Cl,C10H4Cl4,d4tzvp,265.954,4,10,4,-2224.674001870724,-2224.5532009682,0.0001736175,-2224.6049650111,3.316552225214,3.2382399712,0.0008103069,2.9966468511,0.1078516463,-8.8166,-0.2766,8.54,0.43948,168.9717,0.06778 -0.15906 -0.00001,0.021338,0.009364,0.006508
2-0112,pubchemPCH,GLWRUZZCCWGEMX-UHFFFAOYSA-N,c1ccc2c(c1)ccc1c2ccc2c1cc(cc2)Cl,C18H11Cl,xtb2,262.739,11,18,1,-48.719912925934,-48.480739355964,0.000187432529,-48.536622364427,7.629742703107,7.461384984537,0.001284384471,7.078445753599,0.224027326207,-10.2213,-7.5245,2.696812858394,2.252,199.88877,-0.727 0.506 0.000,0.03232605,0.006053463,0.005098672
2-0112,pubchemPCH,GLWRUZZCCWGEMX-UHFFFAOYSA-N,c1ccc2c(c1)ccc1c2ccc2c1cc(cc2)Cl,C18H11Cl,r2scan,262.739,11,18,1,-1152.598640491731,-1152.3542507605,0.0001824642,-1152.4086524535,6.034769089919,5.8611937729,0.001378982,5.4500501696,0.2297096321,-5.4787,-2.3015,3.1772,2.11695,241.63592,-0.66691 0.49888 -0.00000,0.031954,0.006006,0.005056
2-0112,pubchemPCH,GLWRUZZCCWGEMX-UHFFFAOYSA-N,c1ccc2c(c1)ccc1c2ccc2c1cc(cc2)Cl,C18H11Cl,d4tzvp,262.739,11,18,1,-1153.37023320417,-1153.125843473,0.0001824642,-1153.180245166,5.952005673756,5.7784303566,0.001378982,5.3672867544,0.2297096321,-8.061,0.1587,8.2197,2.12886,234.15946,-0.66699 0.50656 -0.00000,0.031954,0.006006,0.005056
2-0113,pubchemPCH,GNDZMZOEZZAVOZ-UHFFFAOYSA-N,c1ccc2c(c1)c1cccc(c1c1c2cccc1Cl)Cl,C18H10Cl2,xtb2,297.184,10,18,2,-52.757589092877,-52.526788161272,0.000193495237,-52.584478766056,7.578376499025,7.41839141882,0.001295226159,7.032219738542,0.21447437946,-10.4547,-7.3445,3.110182047188,2.959,212.178794,1.164 0.000 -0.000,0.0148193,0.009391284,0.006365
2-0113,pubchemPCH,GNDZMZOEZZAVOZ-UHFFFAOYSA-N,c1ccc2c(c1)c1cccc(c1c1c2cccc1Cl)Cl,C18H10Cl2,r2scan,297.184,10,18,2,-1612.155487589009,-1611.919394792,0.0001875928,-1611.975325579,5.974894584429,5.8096162016,0.0013907652,5.3949594266,0.2203503055,-5.7184,-2.2129,3.5055,2.74207,239.87427,1.07879 0.00003 -0.00004,0.01442,0.009284,0.006291
2-0113,pubchemPCH,GNDZMZOEZZAVOZ-UHFFFAOYSA-N,c1ccc2c(c1)c1cccc(c1c1c2cccc1Cl)Cl,C18H10Cl2,d4tzvp,297.184,10,18,2,-1612.96561228336,-1612.7295194864002,0.0001875928,-1612.7854502734,5.900108790706,5.7348304078,0.0013907652,5.3201736338,0.2203503055,-8.4096,0.2631,8.6727,2.78823,233.24803,1.09695 0.00004 -0.00004,0.01442,0.009284,0.006291
2-0114,pubchemPCH,GRHVICDFZKACGC-UHFFFAOYSA-N,c1ccc2c(c1)c1cccc(c1c(c2)Cl)Cl,C14H8Cl2,xtb2,247.124,8,14,2,-43.167540970988,-42.984723046916,0.000177013496,-43.037499620607,5.948479390468,5.822314147516,0.001016019338,5.519387981135,0.169239337235,-10.3895,-7.5821,2.807373384042,3.32,172.249202,-0.944 -0.903 0.000,0.02622588,0.01122235,0.007859277
2-0114,pubchemPCH,GRHVICDFZKACGC-UHFFFAOYSA-N,c1ccc2c(c1)c1cccc(c1c(c2)Cl)Cl,C14H8Cl2,r2scan,247.124,8,14,2,-1458.552766569551,-1458.3660522876,0.0001733342,-1458.4177318739,4.695581285413,4.5655185348,0.0010908952,4.2402680241,0.1734904604,-5.6501,-2.3395,3.3106,3.28039,194.81599,-0.91960 -0.90520 -0.02313,0.025517,0.011088,0.007782
2-0114,pubchemPCH,GRHVICDFZKACGC-UHFFFAOYSA-N,c1ccc2c(c1)c1cccc(c1c(c2)Cl)Cl,C14H8Cl2,d4tzvp,247.124,8,14,2,-1459.201354465045,-1459.014640183,0.0001733342,-1459.0663197693,4.637153858203,4.5070911074,0.0010908952,4.1818405975,0.1734904604,-8.3389,0.1554,8.4943,3.37835,190.23878,-0.95242 -0.92672 -0.02541,0.025517,0.011088,0.007782
2-0115,pubchemPCH,GTVXHLKDHOYLLZ-UHFFFAOYSA-N,c1ccc2c(c1)cc1c(c2Cl)cc2c(c1Cl)cccc2,C18H10Cl2,xtb2,297.184,10,18,2,-52.756964862432,-52.526549139323,0.000195221562,-52.584754448003,7.57775226858,7.418152396871,0.001293499834,7.032495420489,0.213944162411,-9.8436,-8.3244,1.51920625892,0.001,212.166923,0.000 0.000 -0.000,0.01799095,0.006746309,0.004906466