id,subset,key,smiles,formula,level,mwt,nH,nC,nCl,E,H,S,G,dE,dH,dS,dG,zpe,homo,lumo,gap,Mu,alpha,tMu,rotA,rotB,rotC
3-0343,monoCl,HGPKYHYHCXHFJP-UHFFFAOYSA-N,c1ccc2c(c1)cc1c(c2)c2c(cc1)c1cc(Cl)ccc1c1c2cccc1,C26H15Cl,xtb2,362.859,15,26,1,-67.901571554807,-67.566264881006,0.000226310701,-67.633739416569,10.891099305316,10.654934823475,0.001836883423,10.107268029657,0.31458041641,-9.8684,-7.788,2.080376416609,2.396,279.817695,-0.669 -0.656 -0.101,0.0115877,0.003457236,0.002760857
3-0343,monoCl,HGPKYHYHCXHFJP-UHFFFAOYSA-N,c1ccc2c(c1)cc1c(c2)c2c(cc1)c1cc(Cl)ccc1c1c2cccc1,C26H15Cl,r2scan,362.859,15,26,1,-1459.806196319113,-1459.4631495012,0.0002183034,-1459.5282366605,8.595509476417,8.3516028384,0.0019714,7.7638297714,0.3230414016,-5.0799,-2.7151,2.3648,2.23127,364.581,-0.61586 -0.62122 -0.07338,0.011412,0.003425,0.002723
3-0343,monoCl,HGPKYHYHCXHFJP-UHFFFAOYSA-N,c1ccc2c(c1)cc1c(c2)c2c(cc1)c1cc(Cl)ccc1c1c2cccc1,C26H15Cl,d4tzvp,362.859,15,26,1,-1460.894915572736,-1460.5518687548,0.0002183034,-1460.6169559141,8.474082270698,8.2301756324,0.0019714,7.6424025669,0.3230414016,-7.5145,-0.3717,7.1428,2.2104,347.13105,-0.60115 -0.62363 -0.07705,0.011412,0.003425,0.002723
3-0344,monoCl,HGRRMCADYZWZTG-UHFFFAOYSA-N,c1ccc2c(c1)ccc1c2cc2c(c1)c1ccccc1c1c2ccc(c1)Cl,C26H15Cl,xtb2,362.859,15,26,1,-67.912131744068,-67.576476379472,0.000233522592,-67.646101140147,10.901659494577,10.665146321941,0.001829671532,10.119629753235,0.314514987308,-10.1605,-7.4969,2.663517094007,2.382,279.8359,0.653 -0.672 -0.001,0.009843137,0.003563399,0.002616264
3-0344,monoCl,HGRRMCADYZWZTG-UHFFFAOYSA-N,c1ccc2c(c1)ccc1c2cc2c(c1)c1ccccc1c1c2ccc(c1)Cl,C26H15Cl,r2scan,362.859,15,26,1,-1459.819520884932,-1459.4778624703,0.000227137,-1459.5455833635,8.608834042236,8.3663158075,0.0019625664,7.7811764744,0.320616777,-5.4076,-2.4247,2.9829,2.15415,362.27812,0.59588 -0.60264 -0.00049,0.009746,0.003537,0.002595
3-0344,monoCl,HGRRMCADYZWZTG-UHFFFAOYSA-N,c1ccc2c(c1)ccc1c2cc2c(c1)c1ccccc1c1c2ccc(c1)Cl,C26H15Cl,d4tzvp,362.859,15,26,1,-1460.91244643155,-1460.570788017,0.000227137,-1460.6385089102002,8.491613129512,8.2490948946,0.0019625664,7.663955563,0.320616777,-7.9477,-0.0051,7.9426,2.19268,343.76099,0.60373 -0.61618 -0.00048,0.009746,0.003537,0.002595
3-0345,monoCl,HHUXJKDSYDKSRA-UHFFFAOYSA-N,c1ccc2c(c1)cc1c(c2)cc2c(c1)ccc1c2c(Cl)c2ccccc2c1,C26H15Cl,xtb2,362.859,15,26,1,-67.892040467482,-67.557404835256,0.000225912244,-67.624760570658,10.881568217991,10.646074777725,0.00183728188,10.098289183746,0.313873670472,-9.7228,-7.8584,1.86446992618,1.373,279.901304,0.181 -0.464 -0.210,0.01669102,0.002908192,0.00250858
3-0345,monoCl,HHUXJKDSYDKSRA-UHFFFAOYSA-N,c1ccc2c(c1)cc1c(c2)cc2c(c1)ccc1c2c(Cl)c2ccccc2c1,C26H15Cl,r2scan,362.859,15,26,1,-1459.794200847369,-1459.4518551909,0.000218147,-1459.5168957313,8.583514004673,8.3403085281,0.0019715564,7.7524888422,0.3223223818,-4.8915,-2.8148,2.0767,1.12838,408.17787,0.15696 -0.35313 -0.21849,0.016586,0.002863,0.002475
3-0345,monoCl,HHUXJKDSYDKSRA-UHFFFAOYSA-N,c1ccc2c(c1)cc1c(c2)cc2c(c1)ccc1c2c(Cl)c2ccccc2c1,C26H15Cl,d4tzvp,362.859,15,26,1,-1460.878274083216,-1460.5359284267,0.000218147,-1460.6009689671002,8.457440781178,8.2142353043,0.0019715564,7.6264156199,0.3223223818,-7.2853,-0.4968,6.7885,1.1965,378.18022,0.20188 -0.36304 -0.22144,0.016586,0.002863,0.002475
3-0346,monoCl,HHXJWMSGMIHDFG-UHFFFAOYSA-N,c1c2c3cc4cc(Cl)ccc4cc3ccc2c2c(c1)ccc1c2cccc1,C26H15Cl,xtb2,362.859,15,26,1,-67.90232918126,-67.567188123647,0.00022571444,-67.634484883953,10.891856931769,10.655858066116,0.001837479684,10.108013497041,0.314488372124,-9.9787,-7.7933,2.185462645594,2.588,279.819191,0.935 -0.364 0.176,0.01918959,0.002463618,0.00222349
3-0346,monoCl,HHXJWMSGMIHDFG-UHFFFAOYSA-N,c1c2c3cc4cc(Cl)ccc4cc3ccc2c2c(c1)ccc1c2cccc1,C26H15Cl,r2scan,362.859,15,26,1,-1459.807994229962,-1459.4652583062,0.0002180164,-1459.5302598874,8.597307387266,8.3537116434,0.001971687,7.7658529983,0.3227827245,-5.1834,-2.6969,2.4865,2.36891,382.26429,0.84459 -0.36468 0.14920,0.019101,0.002433,0.002195
3-0346,monoCl,HHXJWMSGMIHDFG-UHFFFAOYSA-N,c1c2c3cc4cc(Cl)ccc4cc3ccc2c2c(c1)ccc1c2cccc1,C26H15Cl,d4tzvp,362.859,15,26,1,-1460.894988544208,-1460.5522526204,0.0002180164,-1460.6172542016,8.47415524217,8.230559498,0.001971687,7.6427008544,0.3227827245,-7.6599,-0.3396,7.3203,2.34012,359.73605,0.83041 -0.36550 0.15634,0.019101,0.002433,0.002195
3-0347,monoCl,HIBIENYUKYCQNO-UHFFFAOYSA-N,c1ccc2c(c1)ccc1c2c2cccc3c2c2c1c(Cl)ccc2cc3,C24H13Cl,xtb2,336.821,13,24,1,-62.610622451905,-62.310189669153,0.000209141097,-62.372545087175,9.973708473016,9.762975768704,0.001664770721,9.266624376935,0.28196030635,-9.8861,-7.7044,2.181757188163,1.768,257.244497,-0.181 -0.667 0.076,0.01009962,0.006862501,0.004217172
3-0347,monoCl,HIBIENYUKYCQNO-UHFFFAOYSA-N,c1ccc2c(c1)ccc1c2c2cccc3c2c2c1c(Cl)ccc2cc3,C24H13Cl,r2scan,336.821,13,24,1,-1382.411302499552,-1382.1039129764,0.0002022606,-1382.1642169688,7.859591202762,7.6418999376,0.0017867266,7.1091872489,0.2895862175,-5.1257,-2.5615,2.5642,1.57755,316.93733,-0.18321 -0.58545 0.09422,0.009999,0.006759,0.004158
3-0347,monoCl,HIBIENYUKYCQNO-UHFFFAOYSA-N,c1ccc2c(c1)ccc1c2c2cccc3c2c2c1c(Cl)ccc2cc3,C24H13Cl,d4tzvp,336.821,13,24,1,-1383.413982735993,-1383.1065932128,0.0002022606,-1383.1668972052,7.748830404201,7.5311391388,0.0017867266,6.9984264514,0.2895862175,-7.5378,-0.2666,7.2712,1.66456,305.94651,-0.22948 -0.60540 0.09842,0.009999,0.006759,0.004158
3-0348,monoCl,HIFVSJDAQNCRMG-UHFFFAOYSA-N,c1cc(Cl)c2c(c1)cc1c(c2)c2c(cc1)c1ccccc1c1c2cccc1,C26H15Cl,xtb2,362.859,15,26,1,-67.90156654088,-67.566137084528,0.000225693107,-67.633427484334,10.891094291389,10.654807026997,0.001837501017,10.106956097422,0.314716425395,-9.8528,-7.8114,2.041395264713,1.667,279.827705,0.105 0.595 -0.255,0.01153336,0.00403829,0.003155627
3-0348,monoCl,HIFVSJDAQNCRMG-UHFFFAOYSA-N,c1cc(Cl)c2c(c1)cc1c(c2)c2c(cc1)c1ccccc1c1c2cccc1,C26H15Cl,r2scan,362.859,15,26,1,-1459.805787526007,-1459.4625673895,0.000217676,-1459.5274674949,8.595100683311,8.3510207267,0.0019720274,7.7630606058,0.3232434877,-5.0607,-2.7365,2.3242,1.52998,356.36514,0.07311 0.55825 -0.21290,0.011429,0.003979,0.003097
3-0348,monoCl,HIFVSJDAQNCRMG-UHFFFAOYSA-N,c1cc(Cl)c2c(c1)cc1c(c2)c2c(cc1)c1ccccc1c1c2cccc1,C26H15Cl,d4tzvp,362.859,15,26,1,-1460.894962695726,-1460.5517425592002,0.000217676,-1460.6166426646002,8.474129393688,8.2300494368,0.0019720274,7.6420893174,0.3232434877,-7.4952,-0.4018,7.0934,1.56769,340.88166,0.02130 0.57753 -0.21541,0.011429,0.003979,0.003097
3-0349,monoCl,HIRZEHMKZIGJPZ-UHFFFAOYSA-N,Clc1ccc2c(c1)ccc1c2cc2c(c1)cc1c(c2)c2ccccc2cc1,C26H15Cl,xtb2,362.859,15,26,1,-67.90694365653,-67.571981133177,0.000227877736,-67.639922880091,10.896471407039,10.660651075646,0.001835316388,10.113451493179,0.314093378154,-9.8582,-7.9106,1.947597712148,2.588,279.858257,-0.930 0.415 -0.000,0.01654917,0.002314341,0.002030397
3-0349,monoCl,HIRZEHMKZIGJPZ-UHFFFAOYSA-N,Clc1ccc2c(c1)ccc1c2cc2c(c1)cc1c(c2)c2ccccc2cc1,C26H15Cl,r2scan,362.859,15,26,1,-1459.814077078734,-1459.472164368,0.0002207285,-1459.5379745576,8.603390236038,8.3606177052,0.0019689749,7.7735676685,0.3215957048,-5.0159,-2.8743,2.1416,2.31828,398.16791,-0.84768 0.33659 -0.00002,0.016379,0.002296,0.002014
3-0349,monoCl,HIRZEHMKZIGJPZ-UHFFFAOYSA-N,Clc1ccc2c(c1)ccc1c2cc2c(c1)cc1c(c2)c2ccccc2cc1,C26H15Cl,d4tzvp,362.859,15,26,1,-1460.900642207016,-1460.5587294963,0.0002207285,-1460.6245396859,8.479808904978,8.2370363739,0.0019689749,7.6499863387,0.3215957048,-7.4333,-0.5658,6.8675,2.32051,371.29587,-0.83823 0.36170 -0.00001,0.016379,0.002296,0.002014
3-0350,monoCl,HIWJYIROQOUYCM-UHFFFAOYSA-N,c1ccc2c(c1)ccc1c2cc2c(c1Cl)ccc1c2cccc1,C22H13Cl,xtb2,312.799,13,22,1,-58.314126952297,-58.02682550376,0.000205723495,-58.08816196391,9.263805716138,9.061483289281,0.001561782067,8.59583796504,0.269263344403,-10.0737,-7.6038,2.46992221211,1.94,239.907894,0.000 -0.763 0.000,0.01333983,0.005751191,0.004018639
3-0350,monoCl,HIWJYIROQOUYCM-UHFFFAOYSA-N,c1ccc2c(c1)ccc1c2cc2c(c1Cl)ccc1c2cccc1,C22H13Cl,r2scan,312.799,13,22,1,-1306.205809779823,-1305.9124468946,0.0001997069,-1305.971989516,7.318530657569,7.1101450694,0.0016758679,6.6104849295,0.2757948239,-5.3312,-2.531,2.8002,1.87081,302.37437,0.00000 -0.73602 -0.00002,0.013107,0.005728,0.003986
3-0350,monoCl,HIWJYIROQOUYCM-UHFFFAOYSA-N,c1ccc2c(c1)ccc1c2cc2c(c1Cl)ccc1c2cccc1,C22H13Cl,d4tzvp,312.799,13,22,1,-1307.137200215219,-1306.84383733,0.0001997069,-1306.9033799514,7.217669798993,7.0092842106,0.0016758679,6.509624072,0.2757948239,-7.8785,-0.1456,7.7329,1.85499,289.94043,0.00000 -0.72979 -0.00001,0.013107,0.005728,0.003986
3-0351,monoCl,HIYASXJYPJOJBQ-UHFFFAOYSA-N,c1cc(Cl)cc2c1cc1-c3cccc4c3c3c1c2ccc3cc4,C22H11Cl,xtb2,310.783,11,22,1,-57.297028164713,-57.032119817253,0.000197884054,-57.091118947932,9.033672456426,8.849022073886,0.001486745458,8.405748914364,0.248141759962,-10.3035,-7.8268,2.476673618421,2.154,234.416346,0.765 -0.365 0.000,0.02113319,0.0047599,0.003884892
3-0351,monoCl,HIYASXJYPJOJBQ-UHFFFAOYSA-N,c1cc(Cl)cc2c1cc1-c3cccc4c3c3c1c2ccc3cc4,C22H11Cl,r2scan,310.783,11,22,1,-1304.999565292675,-1304.7295387527,0.0001942967,-1304.7874683255,7.106829541791,6.9170593379,0.0015939743,6.4418157748,0.2535280031,-5.5799,-2.7601,2.8198,2.00422,298.48953,0.67350 -0.41004 0.00004,0.020973,0.004718,0.003852
3-0351,monoCl,HIYASXJYPJOJBQ-UHFFFAOYSA-N,c1cc(Cl)cc2c1cc1-c3cccc4c3c3c1c2ccc3cc4,C22H11Cl,d4tzvp,310.783,11,22,1,-1305.917827619681,-1305.6478010796998,0.0001942967,-1305.7057306524998,7.008356258135,6.8185860541,0.0015939743,6.3433424921,0.2535280031,-8.089,-0.3993,7.6897,2.10491,285.57085,0.71118 -0.42427 0.00005,0.020973,0.004718,0.003852
3-0352,monoCl,HJFGFFKIENRXIK-UHFFFAOYSA-N,c1ccc2c(c1)cc1c(c2)cc2c(c1)c1ccccc1cc2Cl,C22H13Cl,xtb2,312.799,13,22,1,-58.306511622862,-58.019799613424,0.000207552724,-58.081681458102,9.256190386703,9.054457398945,0.001559952838,8.589357459232,0.268714196017,-9.8052,-8.0138,1.791466715813,1.994,239.898432,-0.143 0.771 0.000,0.01673401,0.004405705,0.003487517
3-0352,monoCl,HJFGFFKIENRXIK-UHFFFAOYSA-N,c1ccc2c(c1)cc1c(c2)cc2c(c1)c1ccccc1cc2Cl,C22H13Cl,r2scan,312.799,13,22,1,-1306.197410608029,-1305.9044908952,0.0002014651,-1305.96455771,7.310131485775,7.10218907,0.0016741097,6.6030531235,0.2754306502,-4.9445,-2.9741,1.9704,1.87658,324.33719,-0.12675 0.72733 -0.00003,0.016498,0.004374,0.003457
3-0352,monoCl,HJFGFFKIENRXIK-UHFFFAOYSA-N,c1ccc2c(c1)cc1c(c2)cc2c(c1)c1ccccc1cc2Cl,C22H13Cl,d4tzvp,312.799,13,22,1,-1307.123644315825,-1306.830724603,0.0002014651,-1306.8907914178,7.204113899599,6.9961714836,0.0016741097,6.4970355384,0.2754306502,-7.3474,-0.6696,6.6778,1.84964,309.00602,-0.08940 0.72218 -0.00002,0.016498,0.004374,0.003457
3-0353,monoCl,HJODKSAWPLGGQR-UHFFFAOYSA-N,c1ccc2-c3c(-c2c1)c1c(cc3)cc2c(c1)ccc(c2)Cl,C20H11Cl,xtb2,286.761,11,20,1,-52.927546497844,-52.676922764276,0.000197087373,-52.735684364683,8.250783532287,8.075696706879,0.001381135883,7.663911042485,0.234182943218,-9.6771,-8.1391,1.538031470946,2.052,214.178071,0.807 0.004 0.000,0.03087301,0.004156718,0.003663472
3-0353,monoCl,HJODKSAWPLGGQR-UHFFFAOYSA-N,c1ccc2-c3c(-c2c1)c1c(cc3)cc2c(c1)ccc(c2)Cl,C20H11Cl,r2scan,286.761,11,20,1,-1228.708190278208,-1228.4526225376,0.0001923293,-1228.5099655285,6.47988670186,6.2998543364,0.0014825293,5.8578381112,0.2394874485,-4.768,-3.0589,1.7091,1.66791,291.53905,0.65590 -0.01973 0.00000,0.030466,0.004123,0.003631
3-0353,monoCl,HJODKSAWPLGGQR-UHFFFAOYSA-N,c1ccc2-c3c(-c2c1)c1c(cc3)cc2c(c1)ccc(c2)Cl,C20H11Cl,d4tzvp,286.761,11,20,1,-1229.548291703147,-1229.2927239625,0.0001923293,-1229.3500669534,6.384442257167,6.2044098915,0.0014825293,5.7623936674,0.2394874485,-7.2093,-0.6786,6.5307,1.61528,276.17879,0.63266 -0.05992 0.00001,0.030466,0.004123,0.003631
3-0354,monoCl,HKCNZUXLLAYXSU-UHFFFAOYSA-N,Clc1ccc2c(c1)ccc1c2c2ccc3c(c2c2c1cccc2)cccc3,C26H15Cl,xtb2,362.859,15,26,1,-67.898198723229,-67.562623631298,0.000224775339,-67.629640398636,10.887726473738,10.651293573767,0.001838418785,10.103169011724,0.314994254546,-10.0431,-7.5795,2.46352520838,2.452,279.787816,0.847 0.459 -0.043,0.009953148,0.003994768,0.002931201
3-0354,monoCl,HKCNZUXLLAYXSU-UHFFFAOYSA-N,Clc1ccc2c(c1)ccc1c2c2ccc3c(c2c2c1cccc2)cccc3,C26H15Cl,r2scan,362.859,15,26,1,-1459.801434532951,-1459.4579416358,0.0002167924,-1459.5225783014,8.590747690255,8.346394973,0.001972911,7.7581714123,0.3236690217,-5.321,-2.4724,2.8486,2.23823,356.07998,0.78473 0.39804 -0.03418,0.00988,0.003928,0.002884
3-0354,monoCl,HKCNZUXLLAYXSU-UHFFFAOYSA-N,Clc1ccc2c(c1)ccc1c2c2ccc3c(c2c2c1cccc2)cccc3,C26H15Cl,d4tzvp,362.859,15,26,1,-1460.891258971566,-1460.5477660744,0.0002167924,-1460.61240274,8.470425669528,8.226072952,0.001972911,7.6378493928,0.3236690217,-7.8086,-0.085,7.7236,2.23817,339.60419,0.77971 0.40706 -0.04148,0.00988,0.003928,0.002884
3-0355,monoCl,HLLYGJZPIMMSJK-UHFFFAOYSA-N,c1ccc2c(c1)c1-c3cc4ccccc4c4c3c(-c1cc2)cc(c4)Cl,C24H13Cl,xtb2,336.821,13,24,1,-62.604839763233,-62.304883000868,0.000214564075,-62.368855279714,9.967925784344,9.757669100419,0.001659347743,9.262934569474,0.280943715405,-10.1378,-8.0402,2.09762464529,2.396,257.168113,-0.205 0.920 -0.000,0.009716103,0.005271208,0.003417264
3-0355,monoCl,HLLYGJZPIMMSJK-UHFFFAOYSA-N,c1ccc2c(c1)c1-c3cc4ccccc4c4c3c(-c1cc2)cc(c4)Cl,C24H13Cl,r2scan,336.821,13,24,1,-1382.409205246756,-1382.1034051256,0.0002096455,-1382.1659109388,7.857493949966,7.6413920868,0.0017793417,7.1108812189,0.2870818466,-5.4122,-2.9505,2.4617,2.24821,329.9674,-0.23487 0.85274 -0.00004,0.009631,0.005224,0.003387
3-0355,monoCl,HLLYGJZPIMMSJK-UHFFFAOYSA-N,c1ccc2c(c1)c1-c3cc4ccccc4c4c3c(-c1cc2)cc(c4)Cl,C24H13Cl,d4tzvp,336.821,13,24,1,-1383.413059114252,-1383.1072589931,0.0002096455,-1383.1697648063,7.74790678246,7.5318049191,0.0017793417,7.0012940525,0.2870818466,-7.99,-0.6466,7.3434,2.29652,314.16205,-0.27794 0.85969 -0.00004,0.009631,0.005224,0.003387
3-0356,monoCl,HLPMMWMGCOFKGU-UHFFFAOYSA-N,c1ccc2c3c1ccc1c3c3c4c2cccc4ccc3c(c1)Cl,C22H11Cl,xtb2,310.783,11,22,1,-57.339484755732,-57.073979305559,0.000196154602,-57.132462800152,9.076129047445,8.890881562192,0.00148847491,8.447092766584,0.248890553474,-10.0372,-7.7702,2.267005666164,2.242,234.650551,-0.315 -0.824 -0.000,0.01166859,0.008584252,0.00494578
3-0356,monoCl,HLPMMWMGCOFKGU-UHFFFAOYSA-N,c1ccc2c3c1ccc1c3c3c4c2cccc4ccc3c(c1)Cl,C22H11Cl,r2scan,310.783,11,22,1,-1305.045619804178,-1304.773770861,0.000190332,-1304.8305183365,7.152884053294,6.9612914462,0.001597939,6.4848657858,0.2558226528,-5.2088,-2.6577,2.5511,2.07944,287.26719,-0.27422 -0.77077 -0.00086,0.011559,0.008505,0.0049
3-0356,monoCl,HLPMMWMGCOFKGU-UHFFFAOYSA-N,c1ccc2c3c1ccc1c3c3c4c2cccc4ccc3c(c1)Cl,C22H11Cl,d4tzvp,310.783,11,22,1,-1305.962166236938,-1305.6903172937,0.000190332,-1305.7470647692,7.052694875392,6.8611022681,0.001597939,6.3846766088,0.2558226528,-7.5885,-0.3773,7.2112,2.1065,278.00225,-0.29305 -0.77520 -0.00091,0.011559,0.008505,0.0049