id,subset,key,smiles,formula,level,mwt,nH,nC,nCl,E,H,S,G,dE,dH,dS,dG,zpe,homo,lumo,gap,Mu,alpha,tMu,rotA,rotB,rotC
2-0229,pubchemPCH,MOGQLHWBDFZMJJ-UHFFFAOYSA-N,c1ccc2c(c1)c1c(cc2)ccc2c1cc(cc2)Cl,C18H11Cl,xtb2,262.739,11,18,1,-48.713962701622,-48.474857952791,0.000185730998,-48.530233649955,7.623792478795,7.455503581364,0.001286086002,7.072057039127,0.224193174278,-10.2372,-7.4532,2.784002670159,2.111,199.862744,0.386 0.714 0.177,0.01779992,0.009396956,0.00633964
2-0229,pubchemPCH,MOGQLHWBDFZMJJ-UHFFFAOYSA-N,c1ccc2c(c1)c1c(cc2)ccc2c1cc(cc2)Cl,C18H11Cl,r2scan,262.739,11,18,1,-1152.590571995883,-1152.3458049024,0.0001800031,-1152.3994728254,6.026700594071,5.8527479148,0.0013814431,5.4408705415,0.2304027655,-5.5087,-2.3539,3.1548,2.01085,234.74915,0.34769 0.68871 0.17505,0.017696,0.009227,0.006227
2-0229,pubchemPCH,MOGQLHWBDFZMJJ-UHFFFAOYSA-N,c1ccc2c(c1)c1c(cc2)ccc2c1cc(cc2)Cl,C18H11Cl,d4tzvp,262.739,11,18,1,-1153.361022019589,-1153.1162549260998,0.0001800031,-1153.1699228490995,5.942794489175,5.7688418097,0.0013814431,5.3569644375,0.2304027655,-8.1169,0.0925,8.2094,2.05255,228.00442,0.34397 0.70874 0.17734,0.017696,0.009227,0.006227
2-0230,pubchemPCH,MOXLHAPKZWTHEX-UHFFFAOYSA-N,c1ccc2c(c1)c(Cl)c(cc2)Cl,C10H6Cl2,xtb2,197.064,6,10,2,-33.575626161182,-33.441016793481,0.000155907916,-33.487500738758,4.316715593994,4.224595737133,0.000741436356,4.003536487328,0.12390867355,-10.5617,-7.6175,2.944216193373,2.895,132.3225,0.954 0.623 -0.000,0.04627142,0.01834868,0.01313863
2-0230,pubchemPCH,MOXLHAPKZWTHEX-UHFFFAOYSA-N,c1ccc2c(c1)c(Cl)c(cc2)Cl,C10H6Cl2,r2scan,197.064,6,10,2,-1304.953539683976,-1304.8157981367,0.0001523765,-1304.8612291962,3.41976212028,3.3245092215,0.0007977243,3.086667649,0.1274225214,-5.8314,-2.33,3.5014,2.73407,141.24046,0.89785 0.59235 -0.00001,0.045495,0.01814,0.012969
2-0230,pubchemPCH,MOXLHAPKZWTHEX-UHFFFAOYSA-N,c1ccc2c(c1)c(Cl)c(cc2)Cl,C10H6Cl2,d4tzvp,197.064,6,10,2,-1305.442027664257,-1305.3042861170002,0.0001523765,-1305.3497171765,3.379129943227,3.2838770444,0.0007977243,3.0460354725,0.1274225214,-8.6004,0.2259,8.8263,2.79757,139.39377,0.91617 0.60993 -0.00001,0.045495,0.01814,0.012969
2-0231,pubchemPCH,MQTRSXYWUUEVGT-UHFFFAOYSA-N,Clc1c(Cl)c(Cl)c2c3c1c(Cl)c(Cl)c(c3c1c3c2cccc3ccc1)Cl,C20H6Cl6,xtb2,458.986,6,20,6,-73.240266917466,-73.029615092851,0.000239454211,-73.10100836574,8.118292096784,7.983177180329,0.001423291025,7.558822960112,0.18822644858,-10.3508,-8.7106,1.640207149992,4.144,279.723498,-1.630 -0.001 -0.001,0.005429056,0.004865655,0.00264324
2-0231,pubchemPCH,MQTRSXYWUUEVGT-UHFFFAOYSA-N,Clc1c(Cl)c(Cl)c2c3c1c(Cl)c(Cl)c(c3c1c3c2cccc3ccc1)Cl,C20H6Cl6,r2scan,458.986,6,20,6,-3526.659732613086,-3526.4443380436,0.0002288972,-3526.5125837476,6.347821022898,6.2079618284,0.0015305204,5.7516369878,0.1938351298,-5.376,-3.5139,1.8621,3.9039,350.30188,-1.53588 -0.00101 -0.00070,0.005376,0.004816,0.002632
2-0231,pubchemPCH,MQTRSXYWUUEVGT-UHFFFAOYSA-N,Clc1c(Cl)c(Cl)c2c3c1c(Cl)c(Cl)c(c3c1c3c2cccc3ccc1)Cl,C20H6Cl6,d4tzvp,458.986,6,20,6,-3527.683461731025,-3527.4680671615,0.0002288972,-3527.5363128655,6.283232473845,6.1433732795,0.0015305204,5.6870484395,0.1938351298,-7.8068,-1.2814,6.5254,3.94083,331.18018,-1.55041 -0.00102 -0.00071,0.005376,0.004816,0.002632
2-0232,pubchemPCH,MRDYKJRXPPGZKJ-UHFFFAOYSA-N,c1ccc2c3c1ccc1c3c(c(c2)Cl)c(c(c1Cl)Cl)Cl,C16H6Cl4,xtb2,340.036,6,16,4,-55.570375200577,-55.391123581836,0.000202387888,-55.451465530651,6.586636135277,6.468758254416,0.001130859994,6.131592346437,0.162293397986,-10.4439,-8.311,2.132848471805,4.326,214.63105,1.638 0.462 0.000,0.01127443,0.007649229,0.004557296
2-0232,pubchemPCH,MRDYKJRXPPGZKJ-UHFFFAOYSA-N,c1ccc2c3c1ccc1c3c(c(c2)Cl)c(c(c1Cl)Cl)Cl,C16H6Cl4,r2scan,340.036,6,16,4,-2453.92831395532,-2453.7455067892,0.000196565,-2453.8041126372,5.17325329111,5.0518186172,0.0012149004,4.689595917,0.1662634459,-5.5624,-2.996,2.5664,4.00942,258.36863,1.50565 0.46938 -0.02964,0.011068,0.00756,0.004541
2-0232,pubchemPCH,MRDYKJRXPPGZKJ-UHFFFAOYSA-N,c1ccc2c3c1ccc1c3c(c(c2)Cl)c(c(c1Cl)Cl)Cl,C16H6Cl4,d4tzvp,340.036,6,16,4,-2454.719303951465,-2454.5364967854,0.000196565,-2454.5951026334,5.114929504577,4.9934948308,0.0012149004,4.6312721312,0.1662634459,-8.027,-0.7197,7.3073,4.24255,249.32294,1.59643 0.48639 -0.02792,0.011068,0.00756,0.004541
2-0233,pubchemPCH,MRJBOPVWPORBKZ-UHFFFAOYSA-N,c1ccc2c(c1)c(Cl)c(cc2Cl)Cl,C10H5Cl3,xtb2,231.509,5,10,3,-37.624521965056,-37.49812847886,0.000167204977,-37.547980642666,4.276569026843,4.192665051487,0.000747043691,3.96993397455,0.114358614641,-10.6873,-7.8929,2.794372354574,2.146,144.72236,0.842 -0.061 0.000,0.02364479,0.01635876,0.009669127
2-0233,pubchemPCH,MRJBOPVWPORBKZ-UHFFFAOYSA-N,c1ccc2c(c1)c(Cl)c(cc2Cl)Cl,C10H5Cl3,r2scan,231.509,5,10,3,-1764.533242047745,-1764.4038447404,0.0001630245,-1764.4524504846,3.382742881281,3.2958342224,0.0008039881,3.0561250689,0.1177764368,-5.9179,-2.5696,3.3483,2.03828,156.01872,0.79929 -0.06465 0.00006,0.023194,0.016214,0.009543
2-0233,pubchemPCH,MRJBOPVWPORBKZ-UHFFFAOYSA-N,c1ccc2c(c1)c(Cl)c(cc2Cl)Cl,C10H5Cl3,d4tzvp,231.509,5,10,3,-1765.057481990934,-1764.9280846836,0.0001630245,-1764.9766904278,3.347308307664,3.2603996488,0.0008039881,3.0206904958,0.1177764368,-8.6818,-0.0444,8.6374,2.05839,153.02793,0.80781 -0.05701 0.00006,0.023194,0.016214,0.009543
2-0234,pubchemPCH,MRKXJIFKGARQAD-UHFFFAOYSA-N,c1ccc2-c3c4c(-c2c1)c(Cl)c(Cl)cc4ccc3,C16H8Cl2,xtb2,271.146,8,16,2,-47.460546827595,-47.264966618357,0.000183652675,-47.319722663463,6.654892504345,6.520686032987,0.001115786415,6.188014312621,0.181092436996,-10.6152,-8.1413,2.473876084335,2.92,189.6301,-0.492 -1.038 -0.000,0.01706404,0.01076391,0.006600409
2-0234,pubchemPCH,MRKXJIFKGARQAD-UHFFFAOYSA-N,c1ccc2-c3c4c(-c2c1)c(Cl)c(Cl)cc4ccc3,C16H8Cl2,r2scan,271.146,8,16,2,-1534.763732823894,-1534.5641796712,0.0001792748,-1534.6176304518,5.24211536522,5.1039347048,0.001198367,4.7466414686,0.1853998881,-5.8384,-2.9629,2.8755,2.69507,220.77835,-0.44430 -0.96273 -0.00006,0.016925,0.010626,0.006528
2-0234,pubchemPCH,MRKXJIFKGARQAD-UHFFFAOYSA-N,c1ccc2-c3c4c(-c2c1)c(Cl)c(Cl)cc4ccc3,C16H8Cl2,d4tzvp,271.146,8,16,2,-1535.48565973645,-1535.2861065838,0.0001792748,-1535.3395573644002,5.175837214042,5.0376565536,0.001198367,4.6803633182,0.1853998881,-8.4891,-0.5779,7.9112,2.83067,214.20379,-0.47721 -1.00622 -0.00007,0.016925,0.010626,0.006528
2-0235,pubchemPCH,MSJYWYWKOYUGEW-UHFFFAOYSA-N,Clc1cc2cc(Cl)c3c4c2c(c1Cl)c(Cl)cc4cc(c3Cl)Cl,C16H4Cl6,xtb2,408.926,4,16,6,-63.664339827381,-63.501691275943,0.000221432101,-63.567711256863,6.502516020031,6.401241206473,0.001145624573,6.059673239277,0.142996943607,-10.6663,-8.6908,1.975503416627,0.0,239.450041,0.000 0.000 0.000,0.01033253,0.003806726,0.002781838
2-0235,pubchemPCH,MSJYWYWKOYUGEW-UHFFFAOYSA-N,Clc1cc2cc(Cl)c3c4c2c(c1Cl)c(Cl)cc4cc(c3Cl)Cl,C16H4Cl6,r2scan,408.926,4,16,6,-3373.076236073429,-3372.9105933224,0.0002168428,-3372.9752449887,5.087732203683,4.9834619448,0.0012284462,4.6172005315,0.1463896544,-5.7863,-3.3331,2.4532,0.15333,298.7765,0.00020 0.00073 -0.06032,0.009917,0.003799,0.002796
2-0235,pubchemPCH,MSJYWYWKOYUGEW-UHFFFAOYSA-N,Clc1cc2cc(Cl)c3c4c2c(c1Cl)c(Cl)cc4cc(c3Cl)Cl,C16H4Cl6,d4tzvp,408.926,4,16,6,-3373.937683719835,-3373.7720409688,0.0002168428,-3373.8366926351,5.038757348467,4.9344870898,0.0012284462,4.5682256769,0.1463896544,-8.266,-1.0822,7.1838,0.17831,284.28678,0.00037 0.00104 -0.07014,0.009917,0.003799,0.002796
2-0236,pubchemPCH,MSVCEBXJKYOQSX-UHFFFAOYSA-N,c1ccc2c(c1Cl)cc1c(c2)c2ccccc2c2c1cccc2,C22H13Cl,xtb2,312.799,13,22,1,-58.313321792898,-58.025806923287,0.000211849447,-58.088969835861,9.263000556739,9.060464708808,0.001555656115,8.596645836991,0.26929786807,-10.1268,-7.6107,2.516058931543,1.869,239.862906,-0.383 0.628 0.000,0.01347899,0.005882421,0.004095212
2-0236,pubchemPCH,MSVCEBXJKYOQSX-UHFFFAOYSA-N,c1ccc2c(c1Cl)cc1c(c2)c2ccccc2c2c1cccc2,C22H13Cl,r2scan,312.799,13,22,1,-1306.20510514794,-1305.9123020707,0.0002065379,-1305.9738813395,7.317826025686,7.1100002455,0.0016690369,6.612376753,0.2748018793,-5.3593,-2.5629,2.7964,1.76088,294.08991,-0.36906 0.58628 0.00001,0.013348,0.005824,0.004055
2-0236,pubchemPCH,MSVCEBXJKYOQSX-UHFFFAOYSA-N,c1ccc2c(c1Cl)cc1c(c2)c2ccccc2c2c1cccc2,C22H13Cl,d4tzvp,312.799,13,22,1,-1307.138207938667,-1306.8454048615,0.0002065379,-1306.9069841303,7.218677522441,7.0108517421,0.0016690369,6.5132282509,0.2748018793,-7.9239,-0.1362,7.7877,1.74863,283.28455,-0.32709 0.60522 0.00001,0.013348,0.005824,0.004055
2-0237,pubchemPCH,MTHJGGIUUGKSPD-UHFFFAOYSA-N,c1ccc2c(c1Cl)cc1c(c2Cl)c(Cl)ccc1,C14H7Cl3,xtb2,281.569,7,14,3,-47.212418741096,-47.038102020321,0.000187041841,-47.093868545167,5.904314789551,5.786650749896,0.001022895389,5.481674489009,0.159471803539,-10.2459,-8.2507,1.995179685262,1.157,184.517415,-0.142 -0.433 0.000,0.02052566,0.008520703,0.006021169
2-0237,pubchemPCH,MTHJGGIUUGKSPD-UHFFFAOYSA-N,c1ccc2c(c1Cl)cc1c(c2Cl)c(Cl)ccc1,C14H7Cl3,r2scan,281.569,7,14,3,-1918.12570112051,-1917.9475110805,0.0001824725,-1918.0019152469,4.651794233604,4.5302557249,0.0010986687,4.2026875286,0.1637764255,-5.3665,-3.087,2.2795,1.2724,215.47772,-0.17822 -0.46654 -0.03415,0.020127,0.008371,0.005945
2-0237,pubchemPCH,MTHJGGIUUGKSPD-UHFFFAOYSA-N,c1ccc2c(c1Cl)cc1c(c2Cl)c(Cl)ccc1,C14H7Cl3,d4tzvp,281.569,7,14,3,-1918.806458803354,-1918.6282687634,0.0001824725,-1918.6826729298,4.594982234272,4.4734437256,0.0010986687,4.14587553,0.1637764255,-7.9105,-0.7236,7.1869,1.38186,210.24846,-0.19558 -0.50580 -0.03835,0.020127,0.008371,0.005945
2-0238,pubchemPCH,MUYWUAKFWOYJHA-UHFFFAOYSA-N,c1c(Cl)c(Cl)c2c(c1Cl)c1ccccc1cc2,C14H7Cl3,xtb2,281.569,7,14,3,-47.214227837123,-47.039669925842,0.000187314405,-47.095517715831,5.906123885578,5.788218655417,0.001022622825,5.483323659673,0.159705164432,-10.6392,-7.7865,2.85274247925,2.646,184.683343,-1.021 0.205 -0.013,0.0204722,0.008411068,0.006025019
2-0238,pubchemPCH,MUYWUAKFWOYJHA-UHFFFAOYSA-N,c1c(Cl)c(Cl)c2c(c1Cl)c1ccccc1cc2,C14H7Cl3,r2scan,281.569,7,14,3,-1918.133375920319,-1917.9546880057,0.0001814999,-1918.008802189,4.659469033413,4.5374326501,0.0010996413,4.2095744707,0.164361429,-5.8657,-2.5034,3.3623,2.44245,211.67961,-0.94230 0.18370 -0.04111,0.020065,0.008317,0.005951
2-0238,pubchemPCH,MUYWUAKFWOYJHA-UHFFFAOYSA-N,c1c(Cl)c(Cl)c2c(c1Cl)c1ccccc1cc2,C14H7Cl3,d4tzvp,281.569,7,14,3,-1918.817796611215,-1918.6391086966,0.0001814999,-1918.6932228799,4.606320042133,4.4842836588,0.0010996413,4.1564254801,0.164361429,-8.546,-0.012,8.534,2.40857,205.53726,-0.92975 0.17890 -0.03855,0.020065,0.008317,0.005951
2-0239,pubchemPCH,MVPPADPHJFYWMZ-UHFFFAOYSA-N,c1c(Cl)cccc1,C6H5Cl,xtb2,112.559,5,6,1,-19.932461450856,-19.837633160718,0.000120661386,-19.873608352854,2.722744268025,2.656242318447,0.000464089928,2.517873906152,0.088146865313,-10.8716,-6.5163,4.355246016426,1.823,79.950882,0.717 -0.000 -0.000,0.1919314,0.05266264,0.04132404
2-0239,pubchemPCH,MVPPADPHJFYWMZ-UHFFFAOYSA-N,c1c(Cl)cccc1,C6H5Cl,r2scan,112.559,5,6,1,-691.766017071309,-691.6689864784,0.0001195296,-691.7046242317,2.172368830823,2.1036640036,0.0004995308,1.9547288556,0.0905555747,-6.3305,-1.3089,5.0216,1.80843,76.46704,0.71148 -0.00002 -0.00001,0.190006,0.051893,0.040761
2-0239,pubchemPCH,MVPPADPHJFYWMZ-UHFFFAOYSA-N,c1c(Cl)cccc1,C6H5Cl,d4tzvp,112.559,5,6,1,-692.059959416861,-691.9629288240001,0.0001195296,-691.9985665773,2.145640543883,2.0769357166,0.0004995308,1.9280005691,0.0905555747,-9.3772,1.4644,10.8416,1.82145,77.12216,0.71660 -0.00002 -0.00001,0.190006,0.051893,0.040761
2-0240,pubchemPCH,MWLPOMUHTOMYJT-UHFFFAOYSA-N,c1c(Cl)c(Cl)c2c(c1Cl)c(Cl)c1c(c2Cl)c(Cl)cc(c1Cl)Cl,C14H2Cl8,xtb2,453.794,2,14,8,-67.422834224846,-67.290452388382,0.000234811898,-67.36046155585,5.669518418176,5.593789262832,0.001059647312,5.277855416262,0.110956743225,-10.6651,-9.0473,1.617827051596,0.046,247.373231,-0.000 -0.000 -0.018,0.0074701,0.004081341,0.002728738
2-0240,pubchemPCH,MWLPOMUHTOMYJT-UHFFFAOYSA-N,c1c(Cl)c(Cl)c2c(c1Cl)c(Cl)c1c(c2Cl)c(Cl)cc(c1Cl)Cl,C14H2Cl8,r2scan,453.794,2,14,8,-4215.969887693263,-4215.8344795856,0.000226172,-4215.901912757,4.412372792517,4.333616216,0.0011395282,3.9938656962,0.1146879239,-5.7239,-3.8627,1.8612,0.04101,297.56378,0.00000 -0.00000 -0.01613,0.007344,0.004024,0.002728
2-0240,pubchemPCH,MWLPOMUHTOMYJT-UHFFFAOYSA-N,c1c(Cl)c(Cl)c2c(c1Cl)c(Cl)c1c(c2Cl)c(Cl)cc(c1Cl)Cl,C14H2Cl8,d4tzvp,453.794,2,14,8,-4216.8280434458,-4216.6926353381,0.000226172,-4216.7600685095,4.380187065518,4.3014304893,0.0011395282,3.9616799697,0.1146879239,-8.2549,-1.6159,6.639,0.02565,284.59761,0.00002 0.00003 -0.01009,0.007344,0.004024,0.002728
2-0241,pubchemPCH,MYJMCTFASOFGEO-UHFFFAOYSA-N,c1cc2ccc(c3-c4c(-c(c1)c23)cccc4)Cl,C16H9Cl,xtb2,236.701,9,16,1,-43.412278362786,-43.208402981606,0.00017265108,-43.259878901095,6.695666410561,6.553164767261,0.001109883614,6.222252966939,0.190746784769,-10.432,-7.9175,2.514522480998,1.852,177.234164,0.365 -0.631 0.000,0.01814749,0.01660571,0.008671199
2-0241,pubchemPCH,MYJMCTFASOFGEO-UHFFFAOYSA-N,c1cc2ccc(c3-c4c(-c(c1)c23)cccc4)Cl,C16H9Cl,r2scan,236.701,9,16,1,-1075.186629976091,-1074.9785397935,0.0001691197,-1075.0289628449,5.281734120185,5.1350164299,0.0011916103,4.7797377302,0.1952791488,-5.7155,-2.7872,2.9283,1.76081,204.31468,0.36463 -0.58901 0.00003,0.017984,0.016419,0.008583
2-0241,pubchemPCH,MYJMCTFASOFGEO-UHFFFAOYSA-N,c1cc2ccc(c3-c4c(-c(c1)c23)cccc4)Cl,C16H9Cl,d4tzvp,236.701,9,16,1,-1075.872418149814,-1075.6643279672,0.0001691197,-1075.7147510186,5.209871589646,5.0631538992,0.0011916103,4.7078752004,0.1952791488,-8.3663,-0.3937,7.9726,1.7843,199.54734,0.34667 -0.61041 0.00002,0.017984,0.016419,0.008583
2-0242,pubchemPCH,MZCHRZKUXRIKIY-UHFFFAOYSA-N,c1c(Cl)c(Cl)c2c(c1)c1ccccc1cc2Cl,C14H7Cl3,xtb2,281.569,7,14,3,-47.21510603681,-47.040601969263,0.000188064718,-47.096673465029,5.907002085265,5.789150698838,0.001021872512,5.484479408871,0.159599714714,-10.5384,-7.7962,2.742148944604,4.142,184.698469,-1.418 -0.803 0.000,0.02062466,0.008444467,0.005991383
2-0242,pubchemPCH,MZCHRZKUXRIKIY-UHFFFAOYSA-N,c1c(Cl)c(Cl)c2c(c1)c1ccccc1cc2Cl,C14H7Cl3,r2scan,281.569,7,14,3,-1918.129509652003,-1917.9512696935,0.0001823494,-1918.0056371678,4.655602765097,4.5340143379,0.0010987918,4.2064094495,0.1637890597,-5.7937,-2.5193,3.2744,3.93743,212.41596,-1.32953 -0.79405 0.03815,0.019986,0.008365,0.005966
2-0242,pubchemPCH,MZCHRZKUXRIKIY-UHFFFAOYSA-N,c1c(Cl)c(Cl)c2c(c1)c1ccccc1cc2Cl,C14H7Cl3,d4tzvp,281.569,7,14,3,-1918.814023451462,-1918.635783493,0.0001823494,-1918.6901509673,4.60254688238,4.4809584552,0.0010987918,4.1533535675,0.1637890597,-8.4938,-0.0218,8.472,4.10127,205.69748,-1.39023 -0.81786 0.04300,0.019986,0.008365,0.005966
2-0243,pubchemPCH,NAQWICRLNQSPPW-UHFFFAOYSA-N,c1cccc2c1c(Cl)c(c(c2Cl)Cl)Cl,C10H4Cl4,xtb2,265.954,4,10,4,-41.66792412671,-41.549814362198,0.000176019747,-41.602294649897,4.230928817472,4.1553085638,0.000755133317,3.930165565095,0.10470847344,-10.8118,-8.0838,2.727953360958,2.934,157.397754,1.154 0.000 0.000,0.01685956,0.01526458,0.008011239
2-0243,pubchemPCH,NAQWICRLNQSPPW-UHFFFAOYSA-N,c1cccc2c1c(Cl)c(c(c2Cl)Cl)Cl,C10H4Cl4,r2scan,265.954,4,10,4,-2224.105443942509,-2223.9846154479,0.0001702947,-2224.0353888176,3.338223173277,3.2598833271,0.0008136297,3.0172995334,0.1079198319,-5.9922,-2.6931,3.2991,2.71306,170.83561,1.06738 0.00032 0.00003,0.016582,0.015128,0.007911
2-0243,pubchemPCH,NAQWICRLNQSPPW-UHFFFAOYSA-N,c1cccc2c1c(Cl)c(c(c2Cl)Cl)Cl,C10H4Cl4,d4tzvp,265.954,4,10,4,-2224.667023177508,-2224.5461946829,0.0001702947,-2224.5969680526,3.309573531998,3.2312336859,0.0008136297,2.9886498926,0.1079198319,-8.7551,-0.1931,8.562,2.83054,166.41922,1.11360 0.00034 0.00003,0.016582,0.015128,0.007911
2-0244,pubchemPCH,NAYBTTHKNOTOKL-UHFFFAOYSA-N,c1ccc2c(c1)cc1c(c2)c2c(Cl)cccc2cc1,C18H11Cl,xtb2,262.739,11,18,1,-48.709812676443,-48.470903331876,0.000185960855,-48.526347560915,7.619642453616,7.451548960449,0.001285856145,7.068170950087,0.223884355842,-10.0298,-7.6151,2.414665250408,1.584,199.909136,0.135 -0.588 0.156,0.02371283,0.008199906,0.006169311
2-0244,pubchemPCH,NAYBTTHKNOTOKL-UHFFFAOYSA-N,c1ccc2c(c1)cc1c(c2)c2c(Cl)cccc2cc1,C18H11Cl,r2scan,262.739,11,18,1,-1152.58392800096,-1152.3395289411,0.0001808458,-1152.39344812,6.020056599148,5.8464719535,0.0013806004,5.4348458361,0.2298884301,-5.2283,-2.489,2.7393,1.42442,244.38974,0.14194 -0.51683 0.16368,0.023357,0.008077,0.006073
2-0244,pubchemPCH,NAYBTTHKNOTOKL-UHFFFAOYSA-N,c1ccc2c(c1)cc1c(c2)c2c(Cl)cccc2cc1,C18H11Cl,d4tzvp,262.739,11,18,1,-1153.354074823732,-1153.1096757638002,0.0001808458,-1153.1635949427,5.935847293318,5.7622626474,0.0013806004,5.3506365311,0.2298884301,-7.7634,-0.0628,7.7006,1.46751,236.5837,0.17420 -0.52472 0.16632,0.023357,0.008077,0.006073
2-0245,pubchemPCH,NBZLHGBGVZYBCD-UHFFFAOYSA-N,Clc1c(Cl)c2ccc3c4c2c(c1Cl)c(Cl)c(c4c(c(c3Cl)Cl)Cl)Cl,C16H2Cl8,xtb2,477.816,2,16,8,-71.75012835671,-71.6040641695,0.000243095099,-71.676542973185,6.41021980731,6.32552935798,0.001157770367,5.980340122227,0.123743891756,-10.7775,-8.9061,1.871347640858,1.891,264.872705,-0.000 0.744 0.023,0.006890734,0.003422776,0.002318454
2-0245,pubchemPCH,NBZLHGBGVZYBCD-UHFFFAOYSA-N,Clc1c(Cl)c2ccc3c4c2c(c1Cl)c(Cl)c(c4c(c(c3Cl)Cl)Cl)Cl,C16H2Cl8,r2scan,477.816,2,16,8,-4292.221230407261,-4292.0723734651,0.0002339819,-4292.1421351644,4.999283331977,4.9117988819,0.0012451307,4.5405629702,0.1271216677,-5.8887,-3.5057,2.383,1.84352,328.18687,-0.00043 0.72349 0.05089,0.006738,0.003403,0.002355
2-0245,pubchemPCH,NBZLHGBGVZYBCD-UHFFFAOYSA-N,Clc1c(Cl)c2ccc3c4c2c(c1Cl)c(Cl)c(c4c(c(c3Cl)Cl)Cl)Cl,C16H2Cl8,d4tzvp,477.816,2,16,8,-4293.157058024726,-4293.0082010825,0.0002339819,-4293.0779627818,4.963579728878,4.8760952791,0.0012451307,4.5048593676,0.1271216677,-8.3954,-1.2913,7.1041,1.95388,310.80559,-0.00050 0.76609 0.06326,0.006738,0.003403,0.002355
2-0246,pubchemPCH,NCEVZHIJEFVYHB-UHFFFAOYSA-N,Clc1ccc2-c3c(-c2c1)cccc3,C12H7Cl,xtb2,186.641,7,12,1,-33.745654802142,-33.590736282937,0.000155301456,-33.637039411964,4.989193863249,4.881485911644,0.000831544676,4.63356086585,0.144212929191,-10.183,-7.5365,2.646491527385,2.164,134.356572,-0.811 0.257 -0.000,0.08015937,0.01233489,0.01068993
2-0246,pubchemPCH,NCEVZHIJEFVYHB-UHFFFAOYSA-N,Clc1ccc2-c3c(-c2c1)cccc3,C12H7Cl,r2scan,186.641,7,12,1,-921.496922579647,-921.339063916,0.0001529827,-921.3846757079,3.915434444183,3.80478539,0.0008936187,3.5383528958,0.1473741406,-5.3031,-2.3747,2.9284,2.04866,157.92386,-0.76488 0.25410 -0.00001,0.079569,0.012148,0.010539
2-0246,pubchemPCH,NCEVZHIJEFVYHB-UHFFFAOYSA-N,Clc1ccc2-c3c(-c2c1)cccc3,C12H7Cl,d4tzvp,186.641,7,12,1,-922.023838379548,-921.8659797159,0.0001529827,-921.9115915078,3.862594705192,3.7519456509,0.0008936187,3.4855131574,0.1473741406,-8.0305,0.2882,8.3187,2.07898,153.62734,-0.77400 0.26441 -0.00001,0.079569,0.012148,0.010539
2-0247,pubchemPCH,NDDYOEANXIFTCK-UHFFFAOYSA-N,Clc1ccc2c(c1Cl)c1ccccc1c1c2cccc1,C18H10Cl2,xtb2,297.184,10,18,2,-52.760569363082,-52.529436378656,0.000197314922,-52.588265822574,7.58135676923,7.421039636204,0.001291406474,7.03600679506,0.214723864893,-10.4905,-7.379,3.111454535221,3.121,212.281401,1.146 -0.320 -0.304,0.01511579,0.007998403,0.005380295
2-0247,pubchemPCH,NDDYOEANXIFTCK-UHFFFAOYSA-N,Clc1ccc2c(c1Cl)c1ccccc1c1c2cccc1,C18H10Cl2,r2scan,297.184,10,18,2,-1612.162230286189,-1611.9258500168,0.0001908316,-1611.9827464569,5.981637281609,5.8160714264,0.0013875264,5.4023803045,0.2205419718,-5.7754,-2.2061,3.5693,2.79365,244.84152,1.01155 -0.29748 -0.31027,0.014914,0.007879,0.005312
2-0247,pubchemPCH,NDDYOEANXIFTCK-UHFFFAOYSA-N,Clc1ccc2c(c1Cl)c1ccccc1c1c2cccc1,C18H10Cl2,d4tzvp,297.184,10,18,2,-1612.973156922483,-1612.7367766531002,0.0001908316,-1612.7936730932,5.907653429829,5.7420875745,0.0013875264,5.3283964536,0.2205419718,-8.4407,0.3069,8.7476,2.85135,237.3294,1.02468 -0.32550 -0.32011,0.014914,0.007879,0.005312
2-0248,pubchemPCH,NDZIBNJHNBUHKW-UHFFFAOYSA-N,Clc1c(Cl)c(Cl)cc2c1c(Cl)c(c(c2Cl)Cl)Cl,C10HCl7,xtb2,369.289,1,10,7,-53.800786822979,-53.707710255809,0.000209445852,-53.770156536439,4.096664400666,4.046077344336,0.0007724204,3.815780201579,0.075693919616,-11.0805,-8.6689,2.411590550655,0.677,195.185669,0.011 0.266 0.000,0.01157262,0.00610358,0.003996018