id,subset,key,smiles,formula,level,mwt,nH,nC,nCl,E,H,S,G,dE,dH,dS,dG,zpe,homo,lumo,gap,Mu,alpha,tMu,rotA,rotB,rotC
3-0305,monoCl,GPHGRFFFGGKLBD-UHFFFAOYSA-N,Clc1ccc2c(c1)ccc1c2c2c(cc1)cc1c(c2)c2ccccc2cc1,C26H15Cl,r2scan,362.859,15,26,1,-1459.811991656253,-1459.4690099456,0.0002177001,-1459.5339172366,8.601304813557,8.3574632828,0.0019720033,7.7695103475,0.3230570313,-5.2018,-2.6302,2.5716,2.08426,360.59281,0.36308 0.73247 -0.06374,0.008606,0.004,0.002785
3-0305,monoCl,GPHGRFFFGGKLBD-UHFFFAOYSA-N,Clc1ccc2c(c1)ccc1c2c2c(cc1)cc1c(c2)c2ccccc2cc1,C26H15Cl,d4tzvp,362.859,15,26,1,-1460.899950712009,-1460.5569690013,0.0002177001,-1460.6218762923,8.479117409971,8.2352758789,0.0019720033,7.6473229451,0.3230570313,-7.6751,-0.2685,7.4066,2.12984,342.72541,0.34671 0.76012 -0.06423,0.008606,0.004,0.002785
3-0306,monoCl,GPOLIICQFYGNGD-UHFFFAOYSA-N,c1ccc2c(c1)cc1c(c2)c2c(cc1)cc1c(c2)cc2c(c1Cl)cccc2,C26H15Cl,xtb2,362.859,15,26,1,-67.899847216759,-67.565119892715,0.000227252718,-67.63287529055,10.889374967268,10.653789835184,0.001835941406,10.106403903638,0.313854397383,-9.7788,-7.9968,1.781960206845,1.911,279.90478,0.420 0.624 -0.000,0.01563109,0.002706098,0.002306748
3-0306,monoCl,GPOLIICQFYGNGD-UHFFFAOYSA-N,c1ccc2c(c1)cc1c(c2)c2c(cc1)cc1c(c2)cc2c(c1Cl)cccc2,C26H15Cl,r2scan,362.859,15,26,1,-1459.805615365222,-1459.4637177307,0.0002205354,-1459.5294703732,8.594928522526,8.3521710679,0.001969168,7.7650634841,0.3215997331,-4.9549,-2.9685,1.9864,1.85989,408.89997,0.39319 0.61710 -0.00009,0.015417,0.002685,0.002287
3-0306,monoCl,GPOLIICQFYGNGD-UHFFFAOYSA-N,c1ccc2c(c1)cc1c(c2)c2c(cc1)cc1c(c2)cc2c(c1Cl)cccc2,C26H15Cl,d4tzvp,362.859,15,26,1,-1460.889513997936,-1460.5476163633998,0.0002205354,-1460.6133690058998,8.468680695898,8.225923241,0.001969168,7.6388156587,0.3215997331,-7.3591,-0.6914,6.6677,1.84898,379.43333,0.36544 0.62898 -0.00008,0.015417,0.002685,0.002287
3-0307,monoCl,GPWHIGDQRONFJB-UHFFFAOYSA-N,c1ccc2c(c1)ccc1c2ccc2c1cc1c(c2)cc2c(c1)cc(cc2)Cl,C26H15Cl,xtb2,362.859,15,26,1,-67.901045352611,-67.566275219781,0.00022811032,-67.634286311612,10.89057310312,10.65494516225,0.001835083804,10.1078149247,0.313840755052,-9.7529,-8.1012,1.651680406474,2.568,279.853239,0.879 0.498 -0.000,0.02280541,0.002093247,0.001917266
3-0307,monoCl,GPWHIGDQRONFJB-UHFFFAOYSA-N,c1ccc2c(c1)ccc1c2ccc2c1cc1c(c2)cc2c(c1)cc(cc2)Cl,C26H15Cl,r2scan,362.859,15,26,1,-1459.807924292523,-1459.4659848943,0.0002207767,-1459.5318094591,8.597237449827,8.3544382315,0.0019689267,7.76740257,0.3216179777,-4.8901,-3.0461,1.844,2.33098,406.09728,0.78130 0.48017 -0.00005,0.022537,0.002079,0.001904
3-0307,monoCl,GPWHIGDQRONFJB-UHFFFAOYSA-N,c1ccc2c(c1)ccc1c2ccc2c1cc1c(c2)cc2c(c1)cc(cc2)Cl,C26H15Cl,d4tzvp,362.859,15,26,1,-1460.892014310297,-1460.5500749121,0.0002207767,-1460.6158994769,8.471181008259,8.2283817897,0.0019689267,7.6413461297,0.3216179777,-7.2531,-0.7844,6.4687,2.32854,380.54408,0.77622 0.48654 -0.00005,0.022537,0.002079,0.001904
3-0308,monoCl,GPWNUKFRYCDUGO-UHFFFAOYSA-N,c1ccc2c(c1)c(Cl)c1c(c2)cc2c(c1)c1ccccc1cc2,C22H13Cl,xtb2,312.799,13,22,1,-58.306112529771,-58.019299087924,0.000206928133,-58.080994710716,9.255791293612,9.053956873445,0.001560577429,8.588670711846,0.268815500965,-9.7608,-8.0281,1.732682882216,1.586,239.915542,0.035 -0.623 0.000,0.0211811,0.00445182,0.003678646
3-0308,monoCl,GPWNUKFRYCDUGO-UHFFFAOYSA-N,c1ccc2c(c1)c(Cl)c1c(c2)cc2c(c1)c1ccccc1cc2,C22H13Cl,r2scan,312.799,13,22,1,-1306.196833517038,-1305.9037048414,0.0002011361,-1305.9636735704,7.309554394784,7.1014030162,0.0016744387,6.6021689839,0.2756661651,-4.9121,-2.9978,1.9143,1.43173,321.96287,0.03745 -0.56203 0.00003,0.020873,0.004416,0.003645
3-0308,monoCl,GPWNUKFRYCDUGO-UHFFFAOYSA-N,c1ccc2c(c1)c(Cl)c1c(c2)cc2c(c1)c1ccccc1cc2,C22H13Cl,d4tzvp,312.799,13,22,1,-1307.123276596654,-1306.8301479211,0.0002011361,-1306.8901166501,7.203746180428,6.9955948017,0.0016744387,6.4963607707,0.2756661651,-7.3187,-0.7221,6.5966,1.50229,307.35293,0.00454 -0.59102 0.00003,0.020873,0.004416,0.003645
3-0309,monoCl,GQMFIZKPFWJYDV-UHFFFAOYSA-N,c1ccc2-c3c4c(-c2c1)c1ccccc1cc4c(cc3)Cl,C20H11Cl,xtb2,286.761,11,20,1,-53.001731116719,-52.749987021299,0.000194449994,-52.807962286931,8.324968151162,8.148760963902,0.001383773262,7.736188964733,0.235626505946,-10.046,-8.2181,1.827877346997,1.47,217.222679,-0.098 -0.570 0.000,0.01190375,0.00965258,0.005330309
3-0309,monoCl,GQMFIZKPFWJYDV-UHFFFAOYSA-N,c1ccc2-c3c4c(-c2c1)c1ccccc1cc4c(cc3)Cl,C20H11Cl,r2scan,286.761,11,20,1,-1228.78991043993,-1228.5328905259,0.0001892829,-1228.5893252174,6.561606863582,6.3801223247,0.0014855757,5.9371978001,0.2412767324,-5.2749,-3.1637,2.1112,1.2548,269.37972,-0.05253 -0.49086 -0.00001,0.011836,0.009533,0.00528
3-0309,monoCl,GQMFIZKPFWJYDV-UHFFFAOYSA-N,c1ccc2-c3c4c(-c2c1)c1ccccc1cc4c(cc3)Cl,C20H11Cl,d4tzvp,286.761,11,20,1,-1229.632246478732,-1229.3752265647,0.0001892829,-1229.4316612562,6.468397032752,6.2869124937,0.0014855757,5.8439879702,0.2412767324,-7.7196,-0.8963,6.8233,1.33034,261.67374,-0.11181 -0.51130 -0.00001,0.011836,0.009533,0.00528
3-0310,monoCl,GQPROAWSFKLJAH-UHFFFAOYSA-N,c1ccc2c(c1)c1c(c3c2c2c(Cl)cccc2cc3)cc2c(c1)cccc2,C26H15Cl,xtb2,362.859,15,26,1,-67.898634293322,-67.563531252306,0.00022484612,-67.630569122957,10.888162043831,10.652201194775,0.001838348004,10.104097736045,0.314441372726,-9.922,-7.6562,2.265826101967,1.569,279.90386,-0.112 0.449 -0.409,0.01154986,0.004147658,0.00330272
3-0310,monoCl,GQPROAWSFKLJAH-UHFFFAOYSA-N,c1ccc2c(c1)c1c(c3c2c2c(Cl)cccc2cc3)cc2c(c1)cccc2,C26H15Cl,r2scan,362.859,15,26,1,-1459.797837449129,-1459.4549875931,0.0002166868,-1459.5195927601,8.587150606433,8.3434409303,0.0019730166,7.755185871,0.3229630356,-5.1401,-2.5854,2.5547,1.44737,357.81508,-0.00803 0.44532 -0.35478,0.011402,0.004072,0.003252
3-0310,monoCl,GQPROAWSFKLJAH-UHFFFAOYSA-N,c1ccc2c(c1)c1c(c3c2c2c(Cl)cccc2cc3)cc2c(c1)cccc2,C26H15Cl,d4tzvp,362.859,15,26,1,-1460.887664827156,-1460.5448149712,0.0002166868,-1460.6094201382002,8.466831525118,8.2231218488,0.0019730166,7.634866791,0.3229630356,-7.6116,-0.2206,7.391,1.53829,341.35985,0.01782 0.48443 -0.36232,0.011402,0.004072,0.003252
3-0311,monoCl,GQQBDKALLFOOFX-UHFFFAOYSA-N,c1ccc2c(c1)cc1c(c2)cc(c2c1c1ccccc1c1c2cccc1)Cl,C26H15Cl,xtb2,362.859,15,26,1,-67.895138761489,-67.559846208995,0.000225362043,-67.627037902151,10.884666511998,10.648516151464,0.001837832081,10.100566515239,0.314633374535,-9.881,-7.8442,2.036751682948,1.972,279.863855,-0.341 -0.638 0.279,0.009880948,0.004387877,0.003290078
3-0311,monoCl,GQQBDKALLFOOFX-UHFFFAOYSA-N,c1ccc2c(c1)cc1c(c2)cc(c2c1c1ccccc1c1c2cccc1)Cl,C26H15Cl,r2scan,362.859,15,26,1,-1459.794816432369,-1459.4517288595,0.0002169073,-1459.5163997641,8.584129589673,8.3401821967,0.0019727961,7.751992875,0.3231764975,-5.0581,-2.763,2.2951,1.83182,360.69289,-0.32735 -0.56846 0.29846,0.009719,0.004346,0.003258
3-0311,monoCl,GQQBDKALLFOOFX-UHFFFAOYSA-N,c1ccc2c(c1)cc1c(c2)cc(c2c1c1ccccc1c1c2cccc1)Cl,C26H15Cl,d4tzvp,362.859,15,26,1,-1460.883983183818,-1460.5408956109,0.0002169073,-1460.6055665155,8.46314988178,8.2192024885,0.0019727961,7.6310131683,0.3231764975,-7.4985,-0.42,7.0785,1.88041,344.07573,-0.37840 -0.56247 0.29619,0.009719,0.004346,0.003258
3-0312,monoCl,GQUBBHRPALMWDT-UHFFFAOYSA-N,c1cc2ccc3c4c2c2c1c(Cl)cc1c2c4c(cc1)cc3,C20H9Cl,xtb2,284.745,9,20,1,-51.963232859351,-51.733530690181,0.000179930319,-51.787176914737,8.073435421666,7.914549103896,0.001315416887,7.522357557841,0.215280814138,-10.4448,-7.6749,2.769847083241,2.304,211.725342,-0.823 -0.048 0.378,0.01696013,0.009879244,0.006470179
3-0312,monoCl,GQUBBHRPALMWDT-UHFFFAOYSA-N,c1cc2ccc3c4c2c2c1c(Cl)cc1c2c4c(cc1)cc3,C20H9Cl,r2scan,284.745,9,20,1,-1227.565567668627,-1227.3303436566,0.0001749905,-1227.3825170737,6.331807463649,6.1673978658,0.0014125643,5.7462416922,0.2214570581,-5.8044,-2.6053,3.1991,2.65901,244.8972,-0.73699 -0.04408 0.74112,0.016856,0.00982,0.006452
3-0312,monoCl,GQUBBHRPALMWDT-UHFFFAOYSA-N,c1cc2ccc3c4c2c2c1c(Cl)cc1c2c4c(cc1)cc3,C20H9Cl,d4tzvp,284.745,9,20,1,-1228.39571644785,-1228.1604924358,0.0001749905,-1228.2126658529,6.24192605655,6.0775164586,0.0014125643,5.6563602859,0.2214570581,-8.5851,-0.238,8.3471,2.64801,237.86738,-0.75097 -0.02713 0.72155,0.016856,0.00982,0.006452
3-0313,monoCl,GSGQLQXMNRNPKV-UHFFFAOYSA-N,c1ccc2c(c1)c1c3ccccc3c3c(c1c(c2)Cl)ccc1c3cccc1,C26H15Cl,xtb2,362.859,15,26,1,-67.893742154809,-67.558226050653,0.000223807212,-67.624954170829,10.883269905318,10.646895993122,0.001839386912,10.098482783917,0.314979079837,-10.0864,-7.5345,2.551895148857,1.85,279.839612,0.144 0.595 -0.394,0.009750217,0.004796967,0.003603574
3-0313,monoCl,GSGQLQXMNRNPKV-UHFFFAOYSA-N,c1ccc2c(c1)c1c3ccccc3c3c(c1c(c2)Cl)ccc1c3cccc1,C26H15Cl,r2scan,362.859,15,26,1,-1459.792110428229,-1459.4486610072,0.0002157855,-1459.5129974434,8.581423585533,8.3371143444,0.0019739179,7.7485905543,0.3236947589,-5.3387,-2.4747,2.864,1.73606,348.97273,0.17675 0.51149 -0.41670,0.009628,0.004728,0.003568
3-0313,monoCl,GSGQLQXMNRNPKV-UHFFFAOYSA-N,c1ccc2c(c1)c1c3ccccc3c3c(c1c(c2)Cl)ccc1c3cccc1,C26H15Cl,d4tzvp,362.859,15,26,1,-1460.882531468344,-1460.5390820473,0.0002157855,-1460.6034184835,8.461698166306,8.2173889249,0.0019739179,7.6288651363,0.3236947589,-7.8459,-0.072,7.7739,1.77285,334.24543,0.22272 0.50806 -0.42279,0.009628,0.004728,0.003568
3-0314,monoCl,GSKANNCJEMZLIL-UHFFFAOYSA-N,c1ccc2-c3c(-c2c1)cc1c(c3)c2cc(Cl)ccc2c2c1cccc2,C24H13Cl,xtb2,336.821,13,24,1,-62.535213796703,-62.23561019619,0.000222207187,-62.301861268925,9.898299817814,9.688396295741,0.001651704631,9.195940558685,0.279985805901,-10.0222,-7.588,2.434124126883,2.326,254.321733,-0.258 0.878 0.027,0.009369309,0.00459079,0.003082289
3-0314,monoCl,GSKANNCJEMZLIL-UHFFFAOYSA-N,c1ccc2-c3c(-c2c1)cc1c(c3)c2cc(Cl)ccc2c2c1cccc2,C24H13Cl,r2scan,336.821,13,24,1,-1382.332037597929,-1382.0272752814,0.000217022,-1382.0919803872,7.780326301139,7.5652622426,0.0017719652,7.0369506673,0.2852763197,-5.2102,-2.5013,2.7089,2.25995,337.7976,-0.32883 0.82597 0.01327,0.009277,0.004544,0.00305
3-0314,monoCl,GSKANNCJEMZLIL-UHFFFAOYSA-N,c1ccc2-c3c(-c2c1)cc1c(c3)c2cc(Cl)ccc2c2c1cccc2,C24H13Cl,d4tzvp,336.821,13,24,1,-1383.33861185941,-1383.0338495429005,0.000217022,-1383.0985546487002,7.673459527618,7.4583954689,0.0017719652,6.9300838949,0.2852763197,-7.7139,-0.0242,7.6897,2.24204,318.40052,-0.29523 0.83107 0.01449,0.009277,0.004544,0.00305
3-0315,monoCl,GSNIBPAAALWWGS-UHFFFAOYSA-N,c1cc(Cl)c2-c3c4c(-c2c1)cc1c(c4ccc3)cc2c(c1)cccc2,C24H13Cl,xtb2,336.821,13,24,1,-62.605221145537,-62.305274644588,0.000213373037,-62.36889181556,9.968307166648,9.758060744139,0.001660538781,9.26297110532,0.281041074413,-10.0862,-7.9269,2.159229201572,2.544,257.166988,-0.868 -0.498 -0.000,0.01996698,0.003542545,0.003008735
3-0315,monoCl,GSNIBPAAALWWGS-UHFFFAOYSA-N,c1cc(Cl)c2-c3c4c(-c2c1)cc1c(c4ccc3)cc2c(c1)cccc2,C24H13Cl,r2scan,336.821,13,24,1,-1382.409091155226,-1382.1031016774,0.0002076454,-1382.1650111561,7.857379858436,7.6410886386,0.0017813418,7.1099814362,0.2875233229,-5.2922,-2.8244,2.4678,2.35657,344.60712,-0.79765 -0.47257 -0.00003,0.019737,0.003513,0.002982
3-0315,monoCl,GSNIBPAAALWWGS-UHFFFAOYSA-N,c1cc(Cl)c2-c3c4c(-c2c1)cc1c(c4ccc3)cc2c(c1)cccc2,C24H13Cl,d4tzvp,336.821,13,24,1,-1383.411972311864,-1383.1059828341,0.0002076454,-1383.1678923128,7.746819980072,7.5305287601,0.0017813418,6.999421559,0.2875233229,-7.7598,-0.4787,7.2811,2.21031,326.13254,-0.71087 -0.50084 -0.00004,0.019737,0.003513,0.002982
3-0316,monoCl,GSSCOUITEWIAIZ-UHFFFAOYSA-N,c1ccc2c(c1)ccc1c2c2ccccc2c2c1ccc1c2cc(Cl)cc1,C26H15Cl,xtb2,362.859,15,26,1,-67.90136583923,-67.565820939952,0.000224530504,-67.632764709572,10.890893589739,10.654490882421,0.00183866362,10.10629332266,0.314960271914,-10.1062,-7.5052,2.601024294807,2.258,279.795508,-0.597 -0.529 0.390,0.01205044,0.003720499,0.003113132
3-0316,monoCl,GSSCOUITEWIAIZ-UHFFFAOYSA-N,c1ccc2c(c1)ccc1c2c2ccccc2c2c1ccc1c2cc(Cl)cc1,C26H15Cl,r2scan,362.859,15,26,1,-1459.804637700722,-1459.461168221,0.000216858,-1459.5258244239,8.593950858026,8.3496215582,0.0019728454,7.7614175348,0.3236406571,-5.3645,-2.4543,2.9102,2.10339,351.69199,-0.53951 -0.52543 0.34300,0.011987,0.003662,0.003058
3-0316,monoCl,GSSCOUITEWIAIZ-UHFFFAOYSA-N,c1ccc2c(c1)ccc1c2c2ccccc2c2c1ccc1c2cc(Cl)cc1,C26H15Cl,d4tzvp,362.859,15,26,1,-1460.894567098872,-1460.5510976192002,0.000216858,-1460.6157538221005,8.473733796834,8.2294044968,0.0019728454,7.6412004749,0.3236406571,-7.8716,-0.076,7.7956,2.13053,336.15351,-0.52759 -0.54754 0.35273,0.011987,0.003662,0.003058
3-0317,monoCl,GTQYQZVXAPACOU-UHFFFAOYSA-N,c1ccc2c(c1)c(Cl)c1c(c2)ccc2c1c1ccccc1cc2,C22H13Cl,xtb2,312.799,13,22,1,-58.299681444023,-58.012954009275,0.000204402757,-58.073896691238,9.249360207864,9.047611794796,0.001563102805,8.581572692368,0.26897569087,-9.884,-7.7827,2.101275891821,1.417,239.960866,0.133 -0.421 -0.341,0.01585378,0.006556203,0.004960653
3-0317,monoCl,GTQYQZVXAPACOU-UHFFFAOYSA-N,c1ccc2c(c1)c(Cl)c1c(c2)ccc2c1c1ccccc1cc2,C22H13Cl,r2scan,312.799,13,22,1,-1306.184435150838,-1305.8909114323,0.0001973885,-1305.949762804,7.297156028584,7.0886096071,0.0016781863,6.5882582175,0.2764719609,-5.0978,-2.7432,2.3546,1.32237,297.43646,0.19131 -0.35906 -0.32424,0.015706,0.006377,0.004883
3-0317,monoCl,GTQYQZVXAPACOU-UHFFFAOYSA-N,c1ccc2c(c1)c(Cl)c1c(c2)ccc2c1c1ccccc1cc2,C22H13Cl,d4tzvp,312.799,13,22,1,-1307.11268807737,-1306.8191643589,0.0001973885,-1306.8780157306,7.193157661144,6.9846112395,0.0016781863,6.4842598512,0.2764719609,-7.5944,-0.4079,7.1865,1.42877,286.19234,0.23075 -0.39305 -0.32899,0.015706,0.006377,0.004883
3-0318,monoCl,GUEYEGJEDVKQFI-UHFFFAOYSA-N,c1ccc2-c3c(-c2c1)c1ccc(cc1cc3)Cl,C16H9Cl,xtb2,236.701,9,16,1,-43.338085695126,-43.135208514909,0.000176453418,-43.187818101591,6.621473742901,6.479970300564,0.001106081276,6.150192167435,0.189312207095,-9.891,-7.8726,2.018449208627,2.057,174.246292,-0.798 0.136 0.000,0.04429998,0.007128564,0.006140467
3-0318,monoCl,GUEYEGJEDVKQFI-UHFFFAOYSA-N,c1ccc2-c3c(-c2c1)c1ccc(cc1cc3)Cl,C16H9Cl,r2scan,236.701,9,16,1,-1075.104500874648,-1074.8976772987,0.0001730532,-1074.9492731081,5.199605018742,5.0541539351,0.0011876768,4.7000479934,0.1935430225,-4.9971,-2.7299,2.2672,1.79549,218.05532,-0.69262 0.13879 0.00001,0.043868,0.007049,0.006073
3-0318,monoCl,GUEYEGJEDVKQFI-UHFFFAOYSA-N,c1ccc2-c3c(-c2c1)c1ccc(cc1cc3)Cl,C16H9Cl,d4tzvp,236.701,9,16,1,-1075.788523782851,-1075.581700207,0.0001730532,-1075.6332960164,5.125977222683,4.980526139,0.0011876768,4.6264201982,0.1935430225,-7.5659,-0.199,7.3669,1.77382,209.53429,-0.67807 0.16503 0.00001,0.043868,0.007049,0.006073
3-0319,monoCl,GUYRYUMAZPELSF-UHFFFAOYSA-N,c1ccc2c(c1)cc1c(c2)cc(c2c1c1ccccc1cc2)Cl,C22H13Cl,xtb2,312.799,13,22,1,-58.305323448002,-58.018288676244,0.000206101859,-58.079737945622,9.255002211843,9.052946461765,0.001561403703,8.587413946752,0.269238868022,-9.9606,-7.7911,2.169466856438,2.119,239.874138,0.246 0.796 -0.005,0.01116184,0.006480275,0.004180292
3-0319,monoCl,GUYRYUMAZPELSF-UHFFFAOYSA-N,c1ccc2c(c1)cc1c(c2)cc(c2c1c1ccccc1cc2)Cl,C22H13Cl,r2scan,312.799,13,22,1,-1306.19528356124,-1305.9014830674,0.0001986568,-1305.9607126002,7.308004438986,7.0991812422,0.001676918,6.5992080137,0.2766614359,-5.1366,-2.7158,2.4208,1.93756,303.07724,0.19374 0.73725 -0.00061,0.011033,0.006399,0.004124
3-0319,monoCl,GUYRYUMAZPELSF-UHFFFAOYSA-N,c1ccc2c(c1)cc1c(c2)cc(c2c1c1ccccc1cc2)Cl,C22H13Cl,d4tzvp,312.799,13,22,1,-1307.123270869053,-1306.8294703753,0.0001986568,-1306.8886999081,7.203740452827,6.9949172559,0.001676918,6.4949440287,0.2766614359,-7.6268,-0.3573,7.2695,1.95247,290.90598,0.22976 0.73298 -0.00061,0.011033,0.006399,0.004124
3-0320,monoCl,GVFLKXCGSRGTRZ-UHFFFAOYSA-N,c1cc(Cl)c2-c3c(-c2c1)ccc1c3cccc1,C16H9Cl,xtb2,236.701,9,16,1,-43.338647729494,-43.135640355819,0.00017677992,-43.188347288827,6.622035777269,6.480402141474,0.001105754774,6.150721354671,0.189422195973,-9.8942,-7.8422,2.052058318834,1.687,174.090152,0.071 0.660 0.000,0.02574445,0.01111648,0.007763981
3-0320,monoCl,GVFLKXCGSRGTRZ-UHFFFAOYSA-N,c1cc(Cl)c2-c3c(-c2c1)ccc1c3cccc1,C16H9Cl,r2scan,236.701,9,16,1,-1075.105358977138,-1074.8983469758,0.0001727057,-1074.9498391796,5.200463121232,5.0548236122,0.0011880243,4.7006140649,0.1937267816,-5.021,-2.7155,2.3055,1.69736,210.71325,0.09985 0.66027 0.00004,0.025602,0.01097,0.007679
3-0320,monoCl,GVFLKXCGSRGTRZ-UHFFFAOYSA-N,c1cc(Cl)c2-c3c(-c2c1)ccc1c3cccc1,C16H9Cl,d4tzvp,236.701,9,16,1,-1075.789454245973,-1075.5824422447,0.0001727057,-1075.6339344485002,5.126907685805,4.9812681767,0.0011880243,4.6270586303,0.1937267816,-7.5909,-0.1651,7.4258,1.74628,204.16182,0.10404 0.67910 0.00004,0.025602,0.01097,0.007679
3-0321,monoCl,GVNSGHMELXWEHC-UHFFFAOYSA-N,c1c2cc3c(cc2c2c(c1)ccc1c2cc(Cl)c2c1cccc2)cccc3,C26H15Cl,xtb2,362.859,15,26,1,-67.902444102475,-67.567207841944,0.000225717262,-67.634505443719,10.891971852984,10.655877784413,0.001837476862,10.108034056807,0.31454727354,-9.9258,-7.6613,2.264460582853,1.866,279.835433,-0.012 0.659 -0.323,0.01047961,0.004007679,0.003018723
3-0321,monoCl,GVNSGHMELXWEHC-UHFFFAOYSA-N,c1c2cc3c(cc2c2c(c1)ccc1c2cc(Cl)c2c1cccc2)cccc3,C26H15Cl,r2scan,362.859,15,26,1,-1459.807639584359,-1459.4645810442,0.0002175459,-1459.5294423565,8.596952741663,8.3530343814,0.0019721575,7.7650354674,0.3231128922,-5.1457,-2.6258,2.5199,1.69116,365.59781,0.00955 0.58628 -0.31442,0.010468,0.003928,0.002963
3-0321,monoCl,GVNSGHMELXWEHC-UHFFFAOYSA-N,c1c2cc3c(cc2c2c(c1)ccc1c2cc(Cl)c2c1cccc2)cccc3,C26H15Cl,d4tzvp,362.859,15,26,1,-1460.89528400905,-1460.5522254689,0.0002175459,-1460.6170867812,8.474450707012,8.2305323465,0.0019721575,7.642533434,0.3231128922,-7.6298,-0.2628,7.367,1.74109,347.56935,0.00870 0.60857 -0.31428,0.010468,0.003928,0.002963
3-0322,monoCl,GWEWEVZNLPRZLU-UHFFFAOYSA-N,c1ccc2c(c1)c1c(cc2)c2c1c1c3cccc(c3c1cc2)Cl,C22H11Cl,xtb2,310.783,11,22,1,-57.159429291221,-56.896081181288,0.00020683566,-56.957749233232,8.896073582934,8.712983437921,0.001477793852,8.272379199664,0.245598836565,-9.888,-7.7847,2.103310051004,2.483,229.256509,0.883 -0.418 -0.000,0.01891017,0.004337806,0.003528421
3-0322,monoCl,GWEWEVZNLPRZLU-UHFFFAOYSA-N,c1ccc2c(c1)c1c(cc2)c2c1c1c3cccc(c3c1cc2)Cl,C22H11Cl,r2scan,310.783,11,22,1,-1304.844837413776,-1304.5767948334,0.0002017455,-1304.6369452581,6.952101662892,6.7643154186,0.0015865255,6.2912927074,0.2506267354,-5.0199,-2.7341,2.2858,2.57312,313.5783,0.90233 -0.45890 -0.00001,0.018713,0.004304,0.003499
3-0322,monoCl,GWEWEVZNLPRZLU-UHFFFAOYSA-N,c1ccc2c(c1)c1c(cc2)c2c1c1c3cccc(c3c1cc2)Cl,C22H11Cl,d4tzvp,310.783,11,22,1,-1305.759366388934,-1305.4913238085,0.0002017455,-1305.5514742332,6.849895027388,6.6621087829,0.0015865255,6.1890860728,0.2506267354,-7.5531,-0.2838,7.2693,2.5673,292.94917,0.89421 -0.46964 0.00001,0.018713,0.004304,0.003499
3-0323,monoCl,GWLKBENOWPBXJW-UHFFFAOYSA-N,Clc1ccc2c(c1)ccc1c2c2c(cc1)cc1c(c2)ccc2c1cccc2,C26H15Cl,xtb2,362.859,15,26,1,-67.905658535389,-67.570394820663,0.00022565686,-67.637674413524,10.895186285898,10.659064763132,0.001837537264,10.111203026612,0.314616712038,-9.9822,-7.6698,2.312467061109,2.424,279.81749,0.665 0.682 -0.040,0.01259406,0.003001225,0.002461515
3-0323,monoCl,GWLKBENOWPBXJW-UHFFFAOYSA-N,Clc1ccc2c(c1)ccc1c2c2c(cc1)cc1c(c2)ccc2c1cccc2,C26H15Cl,r2scan,362.859,15,26,1,-1459.811974515364,-1459.4690239564,0.0002178784,-1459.5339844103,8.601287672668,8.3574772936,0.001971825,7.7695775212,0.323030357,-5.202,-2.6257,2.5763,2.28669,372.66248,0.63831 0.63302 -0.03453,0.012631,0.002943,0.00242
3-0323,monoCl,GWLKBENOWPBXJW-UHFFFAOYSA-N,Clc1ccc2c(c1)ccc1c2c2c(cc1)cc1c(c2)ccc2c1cccc2,C26H15Cl,d4tzvp,362.859,15,26,1,-1460.899876300886,-1460.5569257419,0.0002178784,-1460.6218861958,8.479042998848,8.2352326195,0.001971825,7.6473328486,0.323030357,-7.6809,-0.2658,7.4151,2.28024,351.90896,0.62145 0.64564 -0.04148,0.012631,0.002943,0.00242
3-0324,monoCl,GWZIQMPRPILCJF-UHFFFAOYSA-N,Clc1ccc2c(c1)ccc1c2cc2c(c1)cc1c(c2)cc2c(c1)cccc2,C26H15Cl,xtb2,362.859,15,26,1,-67.895095576418,-67.560802113364,0.000227467305,-67.628621490459,10.884623326927,10.649472055833,0.001835726819,10.102150103547,0.313411019052,-9.5688,-8.2199,1.348897588472,2.654,279.86608,-0.996 -0.315 -0.000,0.02372635,0.001999212,0.001843848