id,subset,key,smiles,formula,level,mwt,nH,nC,nCl,E,H,S,G,dE,dH,dS,dG,zpe,homo,lumo,gap,Mu,alpha,tMu,rotA,rotB,rotC
3-0135,monoCl,CWKKVLBMLIDEEE-UHFFFAOYSA-N,Clc1ccc2c(c1)ccc1c2ccc2c1cc1c(c2)ccc2c1cccc2,C26H15Cl,d4tzvp,362.859,15,26,1,-1460.908201868366,-1460.5659313412,0.0002213433,-1460.6319248314,8.487368566328,8.2442382188,0.0019683601,7.6573714842,0.3218925816,-7.7183,-0.2232,7.4951,2.32585,358.00123,-0.86237 -0.30596 -0.00002,0.018034,0.002377,0.0021
3-0136,monoCl,CWMFTKOVBCGBHR-UHFFFAOYSA-N,c1ccc2c(c1)c1cc3c4c(ccc3cc1cc2)ccc1c4cccc1Cl,C26H15Cl,xtb2,362.859,15,26,1,-67.904774055104,-67.56942196509,0.000225295852,-67.636593923334,10.894301805613,10.658091907559,0.001837898272,10.110122536422,0.31471347637,-9.9759,-7.67,2.305912197389,2.195,279.82081,0.761 0.352 0.206,0.01093841,0.003689526,0.002823944
3-0136,monoCl,CWMFTKOVBCGBHR-UHFFFAOYSA-N,c1ccc2c(c1)c1cc3c4c(ccc3cc1cc2)ccc1c4cccc1Cl,C26H15Cl,r2scan,362.859,15,26,1,-1459.810474548818,-1459.4673718724,0.000217339,-1459.5321714953,8.599787706122,8.3558252096,0.0019723644,7.7677646062,0.3232026833,-5.2037,-2.6329,2.5708,1.99727,358.31732,0.70644 0.29533 0.17653,0.010889,0.003625,0.002779
3-0136,monoCl,CWMFTKOVBCGBHR-UHFFFAOYSA-N,c1ccc2c(c1)c1cc3c4c(ccc3cc1cc2)ccc1c4cccc1Cl,C26H15Cl,d4tzvp,362.859,15,26,1,-1460.898937306574,-1460.5558346302,0.000217339,-1460.6206342531,8.478104004536,8.2341415078,0.0019723644,7.6460809059,0.3232026833,-7.6799,-0.2718,7.4081,1.97198,341.21109,0.69247 0.29661 0.18548,0.010889,0.003625,0.002779
3-0137,monoCl,CWUKNTPVFRMSAG-UHFFFAOYSA-N,c1c2cc3c4cc(Cl)ccc4ccc3cc2c2c(c1)ccc1c2cccc1,C26H15Cl,xtb2,362.859,15,26,1,-67.905630364714,-67.570389043781,0.000225802035,-67.637711920507,10.895158115223,10.65905898625,0.001837392089,10.111240533595,0.314593193843,-9.9713,-7.661,2.310318931031,2.368,279.819563,-0.761 -0.495 -0.210,0.01514635,0.002847507,0.002445857
3-0137,monoCl,CWUKNTPVFRMSAG-UHFFFAOYSA-N,c1c2cc3c4cc(Cl)ccc4ccc3cc2c2c(c1)ccc1c2cccc1,C26H15Cl,r2scan,362.859,15,26,1,-1459.81190681565,-1459.4690087019,0.0002180643,-1459.5340245822,8.601219972954,8.3574620391,0.0019716391,7.7696176931,0.3229630735,-5.1937,-2.6125,2.5812,2.16201,371.42959,-0.67883 -0.47968 -0.18054,0.015077,0.002807,0.00241
3-0137,monoCl,CWUKNTPVFRMSAG-UHFFFAOYSA-N,c1c2cc3c4cc(Cl)ccc4ccc3cc2c2c(c1)ccc1c2cccc1,C26H15Cl,d4tzvp,362.859,15,26,1,-1460.899856283786,-1460.5569581701002,0.0002180643,-1460.6219740504,8.479022981748,8.2352650477,0.0019716391,7.6474207032,0.3229630735,-7.6737,-0.2526,7.4211,2.15385,350.91523,-0.66650 -0.48765 -0.18975,0.015077,0.002807,0.00241
3-0138,monoCl,CYMFWRRPPJYVOL-UHFFFAOYSA-N,c1ccc2-c3c(-c2c1)cc1c(c3)c2c(cc1)ccc1c2c(Cl)ccc1,C24H13Cl,xtb2,336.821,13,24,1,-62.526773436707,-62.227787536804,0.000214448631,-62.291725396151,9.889859457818,9.680573636355,0.001659463187,9.185804685911,0.279929482303,-9.9259,-7.4591,2.466752438046,1.365,254.480051,0.264 -0.166 -0.437,0.01379165,0.004806067,0.003850501
3-0138,monoCl,CYMFWRRPPJYVOL-UHFFFAOYSA-N,c1ccc2-c3c(-c2c1)cc1c(c3)c2c(cc1)ccc1c2c(Cl)ccc1,C24H13Cl,r2scan,336.821,13,24,1,-1382.316532393825,-1382.0111107713,0.0002073384,-1382.0729287047,7.764821097035,7.5490977325,0.0017816488,7.0178989848,0.286991434,-5.098,-2.4021,2.6959,1.23201,335.14279,0.20801 -0.07345 -0.43159,0.013395,0.004698,0.003776
3-0138,monoCl,CYMFWRRPPJYVOL-UHFFFAOYSA-N,c1ccc2-c3c(-c2c1)cc1c(c3)c2c(cc1)ccc1c2c(Cl)ccc1,C24H13Cl,d4tzvp,336.821,13,24,1,-1383.319242735652,-1383.0138211132005,0.0002073384,-1383.0756390466,7.65409040386,7.4383670392,0.0017816488,6.9071682928,0.286991434,-7.6046,-0.0057,7.5989,1.32804,316.13012,0.27145 -0.06679 -0.44141,0.013395,0.004698,0.003776
3-0139,monoCl,CYQGUSBNHCUJGW-UHFFFAOYSA-N,c1ccc2-c3c(-c2c1)c(Cl)cc1c3ccc2c1cccc2,C20H11Cl,xtb2,286.761,11,20,1,-52.936607607303,-52.685367162873,0.000197965619,-52.744390612038,8.259844641746,8.084141105476,0.001380257637,7.67261728984,0.234715709849,-9.9951,-7.7784,2.216651152303,2.027,214.109809,0.258 -0.754 0.000,0.01872237,0.006177053,0.004644649
3-0139,monoCl,CYQGUSBNHCUJGW-UHFFFAOYSA-N,c1ccc2-c3c(-c2c1)c(Cl)cc1c3ccc2c1cccc2,C20H11Cl,r2scan,286.761,11,20,1,-1228.717866560862,-1228.4618607342,0.0001934147,-1228.5195273257,6.489562984514,6.309092533,0.0014814439,5.8673999084,0.2397780148,-5.1309,-2.6885,2.4424,1.90903,275.94745,0.28476 -0.69498 0.00006,0.018659,0.006104,0.0046
3-0139,monoCl,CYQGUSBNHCUJGW-UHFFFAOYSA-N,c1ccc2-c3c(-c2c1)c(Cl)cc1c3ccc2c1cccc2,C20H11Cl,d4tzvp,286.761,11,20,1,-1229.562307397601,-1229.3063015709,0.0001934147,-1229.3639681624002,6.398457951621,6.2179874999,0.0014814439,5.7762948764,0.2397780148,-7.707,-0.156,7.551,1.92696,263.2,0.29781 -0.69716 0.00007,0.018659,0.006104,0.0046
3-0140,monoCl,CYRDGPBZGZWMPB-UHFFFAOYSA-N,Clc1ccc2-c3c4c(-c2c1)cc1-c2ccccc2-c1c4ccc3,C22H11Cl,xtb2,310.783,11,22,1,-57.225671049771,-56.961804467755,0.000203783245,-57.02256244222,8.962315341484,8.778706724388,0.001480846267,8.337192408652,0.246491351751,-9.8857,-8.2135,1.672289387619,2.898,231.471119,-0.790 0.822 0.000,0.01691851,0.0044557,0.003526858
3-0140,monoCl,CYRDGPBZGZWMPB-UHFFFAOYSA-N,Clc1ccc2-c3c4c(-c2c1)cc1-c2ccccc2-c1c4ccc3,C22H11Cl,r2scan,310.783,11,22,1,-1304.917553601923,-1304.6488572321,0.0001992571,-1304.7082657436,7.024817851039,6.8363778173,0.0015890139,6.3626131929,0.2516025442,-5.0138,-3.1493,1.8645,2.7004,314.05554,-0.71495 0.78583 0.00002,0.016809,0.004398,0.003486
3-0140,monoCl,CYRDGPBZGZWMPB-UHFFFAOYSA-N,Clc1ccc2-c3c4c(-c2c1)cc1-c2ccccc2-c1c4ccc3,C22H11Cl,d4tzvp,310.783,11,22,1,-1305.834179547859,-1305.5654831781,0.0001992571,-1305.6248916896,6.924708186313,6.7362681525,0.0015890139,6.2625035292,0.2516025442,-7.4978,-0.8007,6.6971,2.47021,295.36588,-0.57810 0.78119 0.00001,0.016809,0.004398,0.003486
3-0141,monoCl,CZFOLBULFGPYDL-UHFFFAOYSA-N,c1cc2ccc3c4c2c(c1)ccc4cc1c3c2c(Cl)cccc12,C22H11Cl,xtb2,310.783,11,22,1,-57.249070746026,-56.98476951216,0.000201080904,-57.044721783693,8.985715037739,8.801671768793,0.001483548608,8.359351750125,0.247138813159,-9.8332,-7.8646,1.968597230765,1.643,231.578821,-0.140 -0.631 -0.000,0.01858828,0.005261358,0.004100674
3-0141,monoCl,CZFOLBULFGPYDL-UHFFFAOYSA-N,c1cc2ccc3c4c2c(c1)ccc4cc1c3c2c(Cl)cccc12,C22H11Cl,r2scan,310.783,11,22,1,-1304.946302897185,-1304.6769446412,0.000196204,-1304.7354428731,7.053567146301,6.8644652264,0.001592067,6.3897903224,0.2525569155,-4.9943,-2.7376,2.2567,1.56898,313.18117,-0.10392 -0.60846 -0.00002,0.018465,0.005205,0.00406
3-0141,monoCl,CZFOLBULFGPYDL-UHFFFAOYSA-N,c1cc2ccc3c4c2c(c1)ccc4cc1c3c2c(Cl)cccc12,C22H11Cl,d4tzvp,310.783,11,22,1,-1305.860140884771,-1305.5907826288,0.000196204,-1305.6492808607002,6.950669523225,6.7615676032,0.001592067,6.2868927003,0.2525569155,-7.3706,-0.4296,6.941,1.58909,297.71928,-0.07368 -0.62083 -0.00003,0.018465,0.005205,0.00406
3-0142,monoCl,CZTBLLTUSPGZMX-UHFFFAOYSA-N,c1ccc2-c3c4c(-c2c1)cccc4c1c(c3)cc(c2c1cccc2)Cl,C24H13Cl,xtb2,336.821,13,24,1,-62.600379185741,-62.300151883145,0.000212107519,-62.363391739818,9.963465206852,9.752937982696,0.001661804299,9.257471029578,0.281452251676,-10.2209,-7.8632,2.357668225237,1.886,257.14902,-0.361 -0.634 0.138,0.01490125,0.004296049,0.003387328
3-0142,monoCl,CZTBLLTUSPGZMX-UHFFFAOYSA-N,c1ccc2-c3c4c(-c2c1)cccc4c1c(c3)cc(c2c1cccc2)Cl,C24H13Cl,r2scan,336.821,13,24,1,-1382.402719760501,-1382.0956941809,0.000205758,-1382.1570409246,7.851008463711,7.6336811421,0.0017832292,7.1020112047,0.2888725271,-5.503,-2.8208,2.6822,1.66263,329.8628,-0.30281 -0.57206 0.09446,0.014708,0.004257,0.003346
3-0142,monoCl,CZTBLLTUSPGZMX-UHFFFAOYSA-N,c1ccc2-c3c4c(-c2c1)cccc4c1c(c3)cc(c2c1cccc2)Cl,C24H13Cl,d4tzvp,336.821,13,24,1,-1383.40711715987,-1383.1000915803,0.000205758,-1383.161438324,7.741964828078,7.5246375063,0.0017832292,6.9929675702,0.2888725271,-8.033,-0.5051,7.5279,1.74758,313.98477,-0.37264 -0.57030 0.09272,0.014708,0.004257,0.003346
3-0143,monoCl,DACULQBGQMQFBN-UHFFFAOYSA-N,c1ccc2c(c1)ccc1c2ccc2c1ccc1c2c2ccccc2cc1Cl,C26H15Cl,xtb2,362.859,15,26,1,-67.905104796355,-67.569530059214,0.000226022002,-67.636918519253,10.894632546864,10.658200001683,0.001837172122,10.110447132341,0.314865918795,-10.0997,-7.5163,2.583407500623,2.138,279.838014,0.433 -0.714 -0.104,0.01279245,0.003283566,0.002651947
3-0143,monoCl,DACULQBGQMQFBN-UHFFFAOYSA-N,c1ccc2c(c1)ccc1c2ccc2c1ccc1c2c2ccccc2cc1Cl,C26H15Cl,r2scan,362.859,15,26,1,-1459.810704600357,-1459.4673835053,0.0002180944,-1459.5324083541,8.600017757661,8.3558368425,0.001971609,7.768001465,0.3233474279,-5.3861,-2.4039,2.9822,1.98889,362.2185,0.40164 -0.66241 -0.11027,0.012686,0.003239,0.002616
3-0143,monoCl,DACULQBGQMQFBN-UHFFFAOYSA-N,c1ccc2c(c1)ccc1c2ccc2c1ccc1c2c2ccccc2cc1Cl,C26H15Cl,d4tzvp,362.859,15,26,1,-1460.900849994962,-1460.5575288999,0.0002180944,-1460.6225537487,8.480016692924,8.2358357775,0.001971609,7.6480004015,0.3233474279,-7.9033,-0.0159,7.8874,1.95339,345.05384,0.36297 -0.66857 -0.10893,0.012686,0.003239,0.002616
3-0144,monoCl,DBROCMUKHNQHBS-UHFFFAOYSA-N,c1cc2ccc3c4c2c(c1)ccc4cc1c3cccc1Cl,C20H11Cl,xtb2,286.761,11,20,1,-53.025024575192,-52.772888608617,0.000190868266,-52.829795982205,8.348261609635,8.17166255122,0.00138735499,7.758022660007,0.236308776372,-9.903,-7.8822,2.020749761692,2.046,217.273259,0.503 0.628 -0.000,0.0226053,0.006478188,0.005035207
3-0144,monoCl,DBROCMUKHNQHBS-UHFFFAOYSA-N,c1cc2ccc3c4c2c(c1)ccc4cc1c3cccc1Cl,C20H11Cl,r2scan,286.761,11,20,1,-1228.817576467465,-1228.5600422169,0.0001862255,-1228.6155653419,6.589272891117,6.4072740157,0.0014886331,5.9634379246,0.2421436142,-5.102,-2.7175,2.3845,1.93708,273.98441,0.47492 0.59602 -0.00001,0.0224,0.006411,0.004985
3-0144,monoCl,DBROCMUKHNQHBS-UHFFFAOYSA-N,c1cc2ccc3c4c2c(c1)ccc4cc1c3cccc1Cl,C20H11Cl,d4tzvp,286.761,11,20,1,-1229.658864847423,-1229.4013305968,0.0001862255,-1229.4568537218,6.495015401443,6.3130165258,0.0014886331,5.8691804358,0.2421436142,-7.4601,-0.4447,7.0154,1.9128,265.99801,0.45026 0.60298 -0.00000,0.0224,0.006411,0.004985
3-0145,monoCl,DCGDOHOJEWWUNQ-UHFFFAOYSA-N,c1ccc2c(c1)cc1c(c2)c2c1cc1c(c2)c2c1c(Cl)ccc2,C22H11Cl,xtb2,310.783,11,22,1,-57.163303376315,-56.900182064024,0.000206620285,-56.961785902016,8.899947668028,8.717084320657,0.001478009227,8.276415868448,0.245396622565,-9.807,-7.8977,1.909329533911,1.756,228.070951,0.174 0.668 -0.000,0.02823181,0.003191427,0.002867298
3-0145,monoCl,DCGDOHOJEWWUNQ-UHFFFAOYSA-N,c1ccc2c(c1)cc1c(c2)c2c1cc1c(c2)c2c1c(Cl)ccc2,C22H11Cl,r2scan,310.783,11,22,1,-1304.850057517411,-1304.582481341,0.000202205,-1304.6427687602,6.957321766527,6.7700019262,0.001586066,6.2971162095,0.2501098338,-4.8829,-2.8359,2.047,1.667,346.24255,-0.02985 0.65516 -0.00006,0.028017,0.00316,0.00284
3-0145,monoCl,DCGDOHOJEWWUNQ-UHFFFAOYSA-N,c1ccc2c(c1)cc1c(c2)c2c1cc1c(c2)c2c1c(Cl)ccc2,C22H11Cl,d4tzvp,310.783,11,22,1,-1305.765550655767,-1305.4979744794,0.000202205,-1305.5582618986,6.856079294221,6.6687594538,0.001586066,6.1958737382,0.2501098338,-7.3607,-0.2631,7.0976,1.69837,315.685,-0.08096 0.66326 -0.00006,0.028017,0.00316,0.00284
3-0146,monoCl,DCSHFQLOAGOUCA-UHFFFAOYSA-N,Clc1ccc2-c3c4c(-c2c1)c1c2ccccc2ccc1cc4ccc3,C24H13Cl,xtb2,336.821,13,24,1,-62.595534911331,-62.295584785495,0.000212074807,-62.358814889069,9.958620932442,9.748370885046,0.001661837011,9.252894178829,0.281212591551,-10.097,-8.0965,2.000487738382,2.587,257.103007,-0.061 -0.994 0.210,0.007944635,0.007415789,0.003960528
3-0146,monoCl,DCSHFQLOAGOUCA-UHFFFAOYSA-N,Clc1ccc2-c3c4c(-c2c1)c1c2ccccc2ccc1cc4ccc3,C24H13Cl,r2scan,336.821,13,24,1,-1382.397137751839,-1382.0904091335,0.0002048712,-1382.1514914797,7.845426455049,7.6283960947,0.001784116,7.0964617598,0.2886150127,-5.3438,-3.0536,2.2902,2.41662,322.96244,-0.03730 -0.93285 0.17983,0.007886,0.007271,0.0039
3-0146,monoCl,DCSHFQLOAGOUCA-UHFFFAOYSA-N,Clc1ccc2-c3c4c(-c2c1)c1c2ccccc2ccc1cc4ccc3,C24H13Cl,d4tzvp,336.821,13,24,1,-1383.398951395052,-1383.0922227768,0.0002048712,-1383.153305123,7.73379906326,7.5167687028,0.001784116,6.9848343692,0.2886150127,-7.8122,-0.7765,7.0357,2.38462,310.4885,-0.10685 -0.91530 0.17594,0.007886,0.007271,0.0039
3-0147,monoCl,DDDJSXTWHMGLHV-UHFFFAOYSA-N,c1ccc2c(c1)cc(c1c2c2ccccc2c2c1cccc2)Cl,C22H13Cl,xtb2,312.799,13,22,1,-58.303021994681,-58.015561006518,0.000205232704,-58.076751137364,9.252700758522,9.050218792039,0.001562272858,8.584427138494,0.269695384733,-10.139,-7.5539,2.585128732791,1.881,239.879029,0.188 0.634 0.332,0.01075528,0.008170734,0.005081229
3-0147,monoCl,DDDJSXTWHMGLHV-UHFFFAOYSA-N,c1ccc2c(c1)cc(c1c2c2ccccc2c2c1cccc2)Cl,C22H13Cl,r2scan,312.799,13,22,1,-1306.188418919332,-1305.8942543908,0.0001981316,-1305.9533273205,7.301139797078,7.0919525656,0.0016774432,6.591822734,0.277049895,-5.3843,-2.4308,2.9535,1.72019,286.99358,0.18688 0.55465 0.33977,0.010618,0.008067,0.005022
3-0147,monoCl,DDDJSXTWHMGLHV-UHFFFAOYSA-N,c1ccc2c(c1)cc(c1c2c2ccccc2c2c1cccc2)Cl,C22H13Cl,d4tzvp,312.799,13,22,1,-1307.121053699611,-1306.8268891711,0.0001981316,-1306.8859621008,7.201523283385,6.9923360517,0.0016774432,6.4922062214,0.277049895,-7.9259,0.005,7.9309,1.75321,277.48321,0.22719 0.55500 0.34076,0.010618,0.008067,0.005022
3-0148,monoCl,DDEKDQWSDNLHMG-UHFFFAOYSA-N,c1c(Cl)cc2-c3c(-c2c1)ccc1c3cc2c(c1)cccc2,C20H11Cl,xtb2,286.761,11,20,1,-52.927268853842,-52.676657714837,0.000197473875,-52.735534550638,8.250505888285,8.07543165744,0.001380749381,7.66376122844,0.234175683302,-9.6965,-8.1282,1.568270344019,2.65,214.168148,-0.729 -0.745 -0.000,0.02072635,0.004800546,0.003897763
3-0148,monoCl,DDEKDQWSDNLHMG-UHFFFAOYSA-N,c1c(Cl)cc2-c3c(-c2c1)ccc1c3cc2c(c1)cccc2,C20H11Cl,r2scan,286.761,11,20,1,-1228.708104318242,-1228.4525028426,0.0001923095,-1228.5098399277,6.479800741894,6.2997346414,0.0014825491,5.8577125104,0.2395298467,-4.7806,-3.0519,1.7287,2.73683,287.76798,-0.75574 -0.76695 -0.00003,0.020445,0.004761,0.003862
3-0148,monoCl,DDEKDQWSDNLHMG-UHFFFAOYSA-N,c1c(Cl)cc2-c3c(-c2c1)ccc1c3cc2c(c1)cccc2,C20H11Cl,d4tzvp,286.761,11,20,1,-1229.548180020029,-1229.2925785444002,0.0001923095,-1229.3499156295002,6.384330574049,6.2042644734,0.0014825491,5.7622423435,0.2395298467,-7.2203,-0.6556,6.5647,2.84204,273.22786,-0.77165 -0.80917 -0.00002,0.020445,0.004761,0.003862
3-0149,monoCl,DEJTZUWPCNMGSD-UHFFFAOYSA-N,c1cc(Cl)c2-c3c4c(-c2c1)c1ccc2c(c1cc4ccc3)cccc2,C24H13Cl,xtb2,336.821,13,24,1,-62.599884423445,-62.299820272002,0.000214660486,-62.363821295905,9.962970444556,9.752606371553,0.001659251332,9.257900585665,0.281000796034,-10.0856,-8.1087,1.976874391823,2.464,257.130268,0.958 0.151 0.000,0.01638583,0.004200741,0.003343571
3-0149,monoCl,DEJTZUWPCNMGSD-UHFFFAOYSA-N,c1cc(Cl)c2-c3c4c(-c2c1)c1ccc2c(c1cc4ccc3)cccc2,C24H13Cl,r2scan,336.821,13,24,1,-1382.403280484863,-1382.0971320796,0.0002094182,-1382.1595701147,7.851569188073,7.6351190408,0.001779569,7.1045403948,0.2875016266,-5.3382,-3.0481,2.2901,2.36735,331.42433,0.92541 0.10521 0.00019,0.016195,0.004164,0.003312
3-0149,monoCl,DEJTZUWPCNMGSD-UHFFFAOYSA-N,c1cc(Cl)c2-c3c4c(-c2c1)c1ccc2c(c1cc4ccc3)cccc2,C24H13Cl,d4tzvp,336.821,13,24,1,-1383.406725257628,-1383.1005768523,0.0002094182,-1383.1630148874,7.741572925836,7.5251227783,0.001779569,6.9945441336,0.2875016266,-7.7853,-0.7675,7.0178,2.18108,317.73274,0.84761 0.13366 0.00020,0.016195,0.004164,0.003312
3-0150,monoCl,DEORMOAAQIMVDB-UHFFFAOYSA-N,c1ccc2c(c1)c1cc3ccc4c5c3c(c1cc2)ccc5ccc4Cl,C24H13Cl,xtb2,336.821,13,24,1,-62.622155352637,-62.321766011842,0.000211911357,-62.384947382935,9.985241373748,9.774552111393,0.001662000461,9.279026672695,0.281596710108,-9.8783,-7.8876,1.990633281621,2.25,257.257093,0.698 -0.544 -0.000,0.01954808,0.003689373,0.003103617
3-0150,monoCl,DEORMOAAQIMVDB-UHFFFAOYSA-N,c1ccc2c(c1)c1cc3ccc4c5c3c(c1cc2)ccc5ccc4Cl,C24H13Cl,r2scan,336.821,13,24,1,-1382.430075274876,-1382.1235612441,0.0002066198,-1382.185164933,7.878363978086,7.6615482053,0.0017823674,7.1301352131,0.2881659363,-5.091,-2.7103,2.3807,2.0726,345.0051,0.64229 -0.50234 -0.00002,0.019383,0.003656,0.003076
3-0150,monoCl,DEORMOAAQIMVDB-UHFFFAOYSA-N,c1ccc2c(c1)c1cc3ccc4c5c3c(c1cc2)ccc5ccc4Cl,C24H13Cl,d4tzvp,336.821,13,24,1,-1383.431161371874,-1383.1246473411002,0.0002066198,-1383.18625103,7.766009040082,7.5491932671,0.0017823674,7.0177802762,0.2881659363,-7.4305,-0.4608,6.9697,2.09284,329.64625,0.63662 -0.52217 -0.00001,0.019383,0.003656,0.003076
3-0151,monoCl,DESOEVWLHPPNGJ-UHFFFAOYSA-N,c1ccc2c(c1)c1-c3cc4ccccc4c4c3c(-c1c(c2)Cl)ccc4,C24H13Cl,xtb2,336.821,13,24,1,-62.604797441413,-62.304670396969,0.000214438953,-62.368605370781,9.967883462524,9.75745649652,0.001659472865,9.262684660541,0.281109367925,-10.1796,-8.0259,2.153685334156,2.342,257.173032,0.427 0.817 0.000,0.01109746,0.005414303,0.003638921
3-0151,monoCl,DESOEVWLHPPNGJ-UHFFFAOYSA-N,c1ccc2c(c1)c1-c3cc4ccccc4c4c3c(-c1c(c2)Cl)ccc4,C24H13Cl,r2scan,336.821,13,24,1,-1382.408473546295,-1382.1024639067,0.0002093328,-1382.1648764707,7.856762249505,7.6404508679,0.0017796544,7.1098467508,0.287318904,-5.428,-2.9461,2.4819,2.08103,326.58759,0.37353 0.72855 -0.00000,0.010984,0.005367,0.003605
3-0151,monoCl,DESOEVWLHPPNGJ-UHFFFAOYSA-N,c1ccc2c(c1)c1-c3cc4ccccc4c4c3c(-c1c(c2)Cl)ccc4,C24H13Cl,d4tzvp,336.821,13,24,1,-1383.412768636321,-1383.1067589967,0.0002093328,-1383.1691715607,7.747616304529,7.5313049227,0.0017796544,7.0007008069,0.287318904,-8.0026,-0.6454,7.3572,2.02466,311.96973,0.28107 0.74531 0.00001,0.010984,0.005367,0.003605
3-0152,monoCl,DFMBWHJLCOCSOW-UHFFFAOYSA-N,c1ccc2c(c1)cc1c(c2)c2c(Cl)cccc2c2c1c1ccccc1cc2,C26H15Cl,xtb2,362.859,15,26,1,-67.897768188183,-67.562420273003,0.0002252152,-67.62956818484,10.887295938692,10.651090215472,0.001837978924,10.103096797928,0.314696066075,-9.929,-7.6061,2.322881400964,1.801,279.84102,0.567 0.254 -0.342,0.007191046,0.005781645,0.003437175
3-0152,monoCl,DFMBWHJLCOCSOW-UHFFFAOYSA-N,c1ccc2c(c1)cc1c(c2)c2c(Cl)cccc2c2c1c1ccccc1cc2,C26H15Cl,r2scan,362.859,15,26,1,-1459.798257792484,-1459.4550887569,0.0002170335,-1459.5197972977,8.587570949788,8.3435420941,0.0019726699,7.7553904086,0.3232606136,-5.1336,-2.5356,2.598,1.6369,351.7546,0.52052 0.20122 -0.32138,0.007103,0.005684,0.003384
3-0152,monoCl,DFMBWHJLCOCSOW-UHFFFAOYSA-N,c1ccc2c(c1)cc1c(c2)c2c(Cl)cccc2c2c1c1ccccc1cc2,C26H15Cl,d4tzvp,362.859,15,26,1,-1460.888556768418,-1460.5453877328,0.0002170335,-1460.6100962736,8.46772346638,8.2236946104,0.0019726699,7.6355429264,0.3232606136,-7.6085,-0.1508,7.4577,1.64995,336.62022,0.53441 0.16782 -0.32804,0.007103,0.005684,0.003384
3-0153,monoCl,DGMYPHMZXUVCEE-UHFFFAOYSA-N,c1c2cc3c4ccccc4ccc3cc2c2c(c1)ccc1c2cc(Cl)cc1,C26H15Cl,xtb2,362.859,15,26,1,-67.905788446459,-67.570538765133,0.000225789259,-67.637857832797,10.895316196968,10.659208707602,0.001837404865,10.111386445885,0.314586085049,-9.9759,-7.6561,2.319843177607,2.033,279.817007,0.019 0.751 -0.276,0.01083538,0.003540681,0.0027456
3-0153,monoCl,DGMYPHMZXUVCEE-UHFFFAOYSA-N,c1c2cc3c4ccccc4ccc3cc2c2c(c1)ccc1c2cc(Cl)cc1,C26H15Cl,r2scan,362.859,15,26,1,-1459.812064116603,-1459.4691210891,0.0002178525,-1459.5340738182,8.601377273907,8.3575744263,0.0019718509,7.7696669291,0.323005709,-5.2092,-2.6176,2.5916,1.91334,367.41898,0.00609 0.70872 -0.25360,0.010785,0.003479,0.002697
3-0153,monoCl,DGMYPHMZXUVCEE-UHFFFAOYSA-N,c1c2cc3c4ccccc4ccc3cc2c2c(c1)ccc1c2cc(Cl)cc1,C26H15Cl,d4tzvp,362.859,15,26,1,-1460.900029368125,-1460.5570863406,0.0002178525,-1460.6220390697,8.479196066087,8.2353932182,0.0019718509,7.6474857225,0.323005709,-7.6957,-0.2579,7.4378,1.95506,348.08789,-0.02603 0.72228 -0.26315,0.010785,0.003479,0.002697
3-0154,monoCl,DGOCTCQCBAHVJX-UHFFFAOYSA-N,c1ccc2c(c1)c1-c3cccc4c3c3c1c(c2)ccc3cc4Cl,C22H11Cl,xtb2,310.783,11,22,1,-57.288962803211,-57.024260909372,0.000198351819,-57.083399504305,9.025607094924,8.841163166005,0.001486277693,8.398029470737,0.247842472813,-10.076,-8.1838,1.892204433911,2.228,234.430095,-0.871 0.102 0.000,0.0180196,0.005788806,0.004381309
3-0154,monoCl,DGOCTCQCBAHVJX-UHFFFAOYSA-N,c1ccc2c(c1)c1-c3cccc4c3c3c1c(c2)ccc3cc4Cl,C22H11Cl,r2scan,310.783,11,22,1,-1304.990225581699,-1304.7204200438,0.0001956638,-1304.7787571952,7.097489830815,6.907940629,0.0015926072,6.4331046445,0.2531035899,-5.305,-3.1573,2.1477,2.14235,294.38285,-0.83824 0.08795 0.00008,0.017894,0.005728,0.004339