id,subset,key,smiles,formula,level,mwt,nH,nC,nCl,E,H,S,G,dE,dH,dS,dG,zpe,homo,lumo,gap,Mu,alpha,tMu,rotA,rotB,rotC
3-0173,monoCl,DQKSMSAIQHGNOB-UHFFFAOYSA-N,c1ccc2c(c1)c1ccc3c(c1cc2)cc1c(c3)ccc2c1cccc2Cl,C26H15Cl,d4tzvp,362.859,15,26,1,-1460.907232430773,-1460.5648126285998,0.0002212315,-1460.6307728058998,8.486399128735,8.2431195062,0.0019684719,7.6562194587,0.3220532776,-7.7182,-0.228,7.4902,2.14116,354.91056,0.81694 0.20547 0.00006,0.019461,0.002484,0.002203
3-0174,monoCl,DQUIPCQEKKCKET-UHFFFAOYSA-N,c1ccc2c(c1)cc1c(c2)c2ccccc2c2c1c(Cl)c1ccccc1c2,C26H15Cl,xtb2,362.859,15,26,1,-67.899554429326,-67.564251586866,0.000227242061,-67.632003807351,10.889082179835,10.652921529335,0.001835952063,10.105532420439,0.314476416572,-10.0639,-7.5543,2.509561135601,1.574,279.88886,-0.168 -0.532 0.269,0.008747,0.004817508,0.00320508
3-0174,monoCl,DQUIPCQEKKCKET-UHFFFAOYSA-N,c1ccc2c(c1)cc1c(c2)c2ccccc2c2c1c(Cl)c1ccccc1c2,C26H15Cl,r2scan,362.859,15,26,1,-1459.800477353401,-1459.4575266849,0.0002186945,-1459.5227304397,8.589790510705,8.3459800221,0.0019710089,7.7583235506,0.3228634294,-5.3207,-2.5467,2.774,1.39176,363.63163,-0.15717 -0.44149 0.28318,0.008651,0.004741,0.003173
3-0174,monoCl,DQUIPCQEKKCKET-UHFFFAOYSA-N,c1ccc2c(c1)cc1c(c2)c2ccccc2c2c1c(Cl)c1ccccc1c2,C26H15Cl,d4tzvp,362.859,15,26,1,-1460.891652398079,-1460.5487017295998,0.0002186945,-1460.6139054843998,8.470819096041,8.2270086072,0.0019710089,7.6393521372,0.3228634294,-7.8609,-0.1277,7.7332,1.43341,345.21771,-0.18201 -0.44845 0.28947,0.008651,0.004741,0.003173
3-0175,monoCl,DROVWYIYFRWSGF-UHFFFAOYSA-N,c1ccc2c(c1)c1ccccc1c1c2cc(Cl)c2c1c1ccccc1cc2,C26H15Cl,xtb2,362.859,15,26,1,-67.903236409759,-67.56778495679,0.000225483515,-67.635012866838,10.892764160268,10.656454899259,0.001837710609,10.108541479926,0.314756533294,-10.1,-7.4806,2.619348462419,2.046,279.864559,0.111 0.752 -0.264,0.008098831,0.005716604,0.003699231
3-0175,monoCl,DROVWYIYFRWSGF-UHFFFAOYSA-N,c1ccc2c(c1)c1ccccc1c1c2cc(Cl)c2c1c1ccccc1cc2,C26H15Cl,r2scan,362.859,15,26,1,-1459.804535886688,-1459.4611436452,0.0002166065,-1459.5257248609,8.593849043992,8.3495969824,0.0019730969,7.7613179718,0.323497835,-5.3704,-2.4047,2.9657,1.94739,341.10671,0.05920 0.71964 -0.25612,0.008028,0.005623,0.003642
3-0175,monoCl,DROVWYIYFRWSGF-UHFFFAOYSA-N,c1ccc2c(c1)c1ccccc1c1c2cc(Cl)c2c1c1ccccc1cc2,C26H15Cl,d4tzvp,362.859,15,26,1,-1460.896396427119,-1460.5530041856,0.0002166065,-1460.6175854013,8.475563125081,8.2313110632,0.0019730969,7.6430320541,0.323497835,-7.9085,-0.0099,7.8986,1.94915,327.84247,0.08411 0.71985 -0.25056,0.008028,0.005623,0.003642
3-0176,monoCl,DRTQRYUIFKDHQN-UHFFFAOYSA-N,c1ccc2c(c1)cc1c3c2-c2ccccc2-c3c2c(c1)cccc2Cl,C24H13Cl,xtb2,336.821,13,24,1,-62.579900469872,-62.280453316585,0.000213076118,-62.343981961243,9.942986490983,9.733239416136,0.0016608357,9.238061251003,0.28051806855,-9.7803,-8.4157,1.364538791844,2.164,257.192466,-0.339 -0.742 0.244,0.01168172,0.005775805,0.00398489
3-0176,monoCl,DRTQRYUIFKDHQN-UHFFFAOYSA-N,c1ccc2c(c1)cc1c3c2-c2ccccc2-c3c2c(c1)cccc2Cl,C24H13Cl,r2scan,336.821,13,24,1,-1382.37731675727,-1382.0710734423,0.0002061308,-1382.1325313552,7.82560546048,7.6090604035,0.0017828564,7.0775016353,0.287925899,-4.9555,-3.4294,1.5261,2.30093,338.46844,-0.24835 -0.82615 0.27431,0.011532,0.005698,0.003934
3-0176,monoCl,DRTQRYUIFKDHQN-UHFFFAOYSA-N,c1ccc2c(c1)cc1c3c2-c2ccccc2-c3c2c(c1)cccc2Cl,C24H13Cl,d4tzvp,336.821,13,24,1,-1383.374759150728,-1383.0685158357,0.0002061308,-1383.1299737486,7.709606818936,7.4930617617,0.0017828564,6.9615029948,0.287925899,-7.264,-1.2926,5.9714,2.37559,328.91179,-0.22236 -0.86092 0.28789,0.011532,0.005698,0.003934
3-0177,monoCl,DRUUVXDTWCUKPO-UHFFFAOYSA-N,c1ccc2c(c1)cc(c1c2c2c1ccc1c2c2c1cccc2)Cl,C22H11Cl,xtb2,310.783,11,22,1,-57.159224379292,-56.895904505868,0.000207516688,-56.957775606287,8.895868671005,8.712806762501,0.001477112824,8.272405572719,0.245522906898,-9.966,-7.8804,2.085605820581,2.247,229.277645,-0.272 -0.841 0.000,0.01321213,0.005402457,0.003834518
3-0177,monoCl,DRUUVXDTWCUKPO-UHFFFAOYSA-N,c1ccc2c(c1)cc(c1c2c2c1ccc1c2c2c1cccc2)Cl,C22H11Cl,r2scan,310.783,11,22,1,-1304.844202652911,-1304.5762929617,0.0002024086,-1304.6366410889,6.951466902027,6.7638135469,0.0015858624,6.2909885382,0.2503989769,-5.071,-2.8046,2.2664,2.15583,312.91866,-0.18737 -0.82720 -0.00002,0.013091,0.005356,0.003801
3-0177,monoCl,DRUUVXDTWCUKPO-UHFFFAOYSA-N,c1ccc2c(c1)cc(c1c2c2c1ccc1c2c2c1cccc2)Cl,C22H11Cl,d4tzvp,310.783,11,22,1,-1305.758836448188,-1305.490926757,0.0002024086,-1305.5512748842,6.849365086642,6.6617117314,0.0015858624,6.1888867238,0.2503989769,-7.6254,-0.3601,7.2653,2.14428,292.8974,-0.11939 -0.83512 -0.00002,0.013091,0.005356,0.003801
3-0178,monoCl,DRZBLVKNPBJDDI-UHFFFAOYSA-N,c1cc(Cl)c2c(c1)ccc1c2c2ccccc2c2c1cccc2,C22H13Cl,xtb2,312.799,13,22,1,-58.304925704529,-58.017705101797,0.00020496944,-58.078816740275,9.25460446837,9.052362887318,0.001562536122,8.586492741405,0.269440125517,-10.0849,-7.5121,2.572776700204,1.563,239.921725,0.022 -0.469 -0.398,0.01321636,0.007510679,0.005302477
3-0178,monoCl,DRZBLVKNPBJDDI-UHFFFAOYSA-N,c1cc(Cl)c2c(c1)ccc1c2c2ccccc2c2c1cccc2,C22H13Cl,r2scan,312.799,13,22,1,-1306.189701254909,-1305.8958035269,0.0001978076,-1305.9547798633,7.302422132655,7.0935017017,0.0016777672,6.5932752768,0.2767879669,-5.3427,-2.4162,2.9265,1.44361,284.94351,0.10893 -0.43684 -0.34623,0.013079,0.007317,0.005209
3-0178,monoCl,DRZBLVKNPBJDDI-UHFFFAOYSA-N,c1cc(Cl)c2c(c1)ccc1c2c2ccccc2c2c1cccc2,C22H13Cl,d4tzvp,312.799,13,22,1,-1307.121997809879,-1306.8281000819,0.0001978076,-1306.8870764183,7.202467393653,6.9935469625,0.0016777672,6.4933205389,0.2767879669,-7.8783,-0.004,7.8743,1.53571,275.65138,0.14979 -0.46486 -0.35567,0.013079,0.007317,0.005209
3-0179,monoCl,DSRKTPXTPRLFQL-UHFFFAOYSA-N,c1c(Cl)cc2c(c1)c1-c3c4ccccc4cc4c3c(-c1cc2)ccc4,C24H13Cl,xtb2,336.821,13,24,1,-62.589447480446,-62.289674653622,0.000212329927,-62.352980821316,9.952533501557,9.742460753173,0.001661581891,9.247060111076,0.280995180688,-9.9318,-8.2783,1.653499047033,3.164,257.075221,-1.178 0.399 0.057,0.01143911,0.00496396,0.003517305
3-0179,monoCl,DSRKTPXTPRLFQL-UHFFFAOYSA-N,c1c(Cl)cc2c(c1)c1-c3c4ccccc4cc4c3c(-c1cc2)ccc4,C24H13Cl,r2scan,336.821,13,24,1,-1382.39137973845,-1382.0848045123,0.0002054496,-1382.1460593239,7.83966844166,7.6227914735,0.0017835376,7.091029604,0.288412922,-5.1665,-3.2249,1.9416,3.05497,331.83166,-1.14247 0.36675 0.06926,0.011365,0.004882,0.003466
3-0179,monoCl,DSRKTPXTPRLFQL-UHFFFAOYSA-N,c1c(Cl)cc2c(c1)c1-c3c4ccccc4cc4c3c(-c1cc2)ccc4,C24H13Cl,d4tzvp,336.821,13,24,1,-1383.390126962633,-1383.0835517364,0.0002054496,-1383.144806548,7.724974630841,7.5080976624,0.0017835376,6.9763357942,0.288412922,-7.629,-0.9897,6.6393,2.98792,318.82475,-1.10124 0.40496 0.07153,0.011365,0.004882,0.003466
3-0180,monoCl,DSTBITLFHJVQBJ-UHFFFAOYSA-N,c1ccc2c(c1)ccc1c2c2ccccc2c2c1c(Cl)ccc2,C22H13Cl,xtb2,312.799,13,22,1,-58.301826868888,-58.014371370695,0.000204752226,-58.075418246784,9.251505632729,9.049029156216,0.001562753336,8.583094247914,0.269727291028,-10.0193,-7.4616,2.557642995284,1.727,239.861116,-0.098 0.672 -0.017,0.0112107,0.007899896,0.004851677
3-0180,monoCl,DSTBITLFHJVQBJ-UHFFFAOYSA-N,c1ccc2c(c1)ccc1c2c2ccccc2c2c1c(Cl)ccc2,C22H13Cl,r2scan,312.799,13,22,1,-1306.18700415455,-1305.8928236176,0.0001981418,-1305.9518996084,7.299725032296,7.0905217924,0.001677433,6.5903950219,0.2770889633,-5.2893,-2.3636,2.9257,1.55889,286.98065,-0.12545 0.59839 -0.04832,0.011109,0.00776,0.004765
3-0180,monoCl,DSTBITLFHJVQBJ-UHFFFAOYSA-N,c1ccc2c(c1)ccc1c2c2ccccc2c2c1c(Cl)ccc2,C22H13Cl,d4tzvp,312.799,13,22,1,-1307.119500998022,-1306.825320461,0.0001981418,-1306.8843964518,7.199970581796,6.9907673416,0.001677433,6.4906405724,0.2770889633,-7.8186,0.0508,7.8694,1.59242,277.44902,-0.16472 0.60260 -0.04729,0.011109,0.00776,0.004765
3-0181,monoCl,DSVLPDNZOMDJFK-UHFFFAOYSA-N,Clc1ccc2c(c1)cc1c(c2)c2cc3ccccc3cc2cc1,C22H13Cl,xtb2,312.799,13,22,1,-58.310746111752,-58.023982782458,0.000207207426,-58.085761676469,9.260424875593,9.058640567979,0.001560298136,8.593437677599,0.268795675314,-10.0835,-7.7085,2.374933006312,2.546,239.883674,-1.001 0.045 -0.000,0.0257461,0.003330021,0.002948642
3-0181,monoCl,DSVLPDNZOMDJFK-UHFFFAOYSA-N,Clc1ccc2c(c1)cc1c(c2)c2cc3ccccc3cc2cc1,C22H13Cl,r2scan,312.799,13,22,1,-1306.203349532759,-1305.9105689354,0.0002014934,-1305.970644179,7.316070410505,7.1082671102,0.0016740814,6.6091395925,0.2753017767,-5.3096,-2.5657,2.7439,2.33711,327.94777,-0.91946 -0.00354 0.00001,0.025543,0.0033,0.002923
3-0181,monoCl,DSVLPDNZOMDJFK-UHFFFAOYSA-N,Clc1ccc2c(c1)cc1c(c2)c2cc3ccccc3cc2cc1,C22H13Cl,d4tzvp,312.799,13,22,1,-1307.130361068605,-1306.8375804712,0.0002014934,-1306.8976557147998,7.210830652379,7.0030273518,0.0016740814,6.5038998354,0.2753017767,-7.8166,-0.148,7.6686,2.33274,308.88749,-0.91771 0.00822 0.00002,0.025543,0.0033,0.002923
3-0182,monoCl,DTAJKMRSKWEILN-UHFFFAOYSA-N,c1cc(Cl)c2c(c1)ccc1c2ccc2c1c1ccccc1cc2,C22H13Cl,xtb2,312.799,13,22,1,-58.303405322367,-58.016122431705,0.00020437223,-58.077056012189,9.253084086208,9.050780217226,0.001563133332,8.584732013319,0.269590767025,-10.1261,-7.4591,2.666926418109,1.706,239.855107,0.236 0.542 -0.319,0.01794552,0.005177158,0.00424428
3-0182,monoCl,DTAJKMRSKWEILN-UHFFFAOYSA-N,c1cc(Cl)c2c(c1)ccc1c2ccc2c1c1ccccc1cc2,C22H13Cl,r2scan,312.799,13,22,1,-1306.190873747414,-1305.8967954643,0.0001976499,-1305.9557247825,7.30359462516,7.0944936391,0.0016779249,6.594220196,0.2770581566,-5.3985,-2.3404,3.0581,1.55592,296.01265,0.18608 0.49943 -0.30109,0.017841,0.005076,0.00417
3-0182,monoCl,DTAJKMRSKWEILN-UHFFFAOYSA-N,c1cc(Cl)c2c(c1)ccc1c2ccc2c1c1ccccc1cc2,C22H13Cl,d4tzvp,312.799,13,22,1,-1307.12118027836,-1306.8271019953002,0.0001976499,-1306.8860313135,7.201649862134,6.9925488759,0.0016779249,6.4922754341,0.2770581566,-7.958,0.0811,8.0391,1.57247,284.60828,0.14853 0.51478 -0.30929,0.017841,0.005076,0.00417
3-0183,monoCl,DTJBOCYDXXJKSZ-UHFFFAOYSA-N,c1ccc2c(c1)ccc1c2ccc2c1c1cccc(c1c1c2cccc1)Cl,C26H15Cl,xtb2,362.859,15,26,1,-67.896486040368,-67.560815369385,0.000226137571,-67.628238286308,10.886013790877,10.649485311854,0.001837056553,10.101766899396,0.314932821132,-10.1246,-7.4353,2.689361115599,1.91,279.825056,0.669 -0.165 0.300,0.01263469,0.003747121,0.00296317
3-0183,monoCl,DTJBOCYDXXJKSZ-UHFFFAOYSA-N,c1ccc2c(c1)ccc1c2ccc2c1c1cccc(c1c1c2cccc1)Cl,C26H15Cl,r2scan,362.859,15,26,1,-1459.796612891478,-1459.453207377,0.0002180001,-1459.5182041169,8.585926048782,8.3416607142,0.0019717033,7.7537972278,0.323405497,-5.4215,-2.3039,3.1176,1.71367,352.8645,0.59076 -0.13766 0.29427,0.012482,0.003697,0.002925
3-0183,monoCl,DTJBOCYDXXJKSZ-UHFFFAOYSA-N,c1ccc2c(c1)ccc1c2ccc2c1c1cccc(c1c1c2cccc1)Cl,C26H15Cl,d4tzvp,362.859,15,26,1,-1460.889174543892,-1460.5457690294,0.0002180001,-1460.6107657693,8.468341241854,8.224075907,0.0019717033,7.6362124221,0.323405497,-7.9757,0.1325,8.1082,1.73211,337.32513,0.59923 -0.11873 0.30199,0.012482,0.003697,0.002925
3-0184,monoCl,DTMKJUCUDDGDAO-UHFFFAOYSA-N,c1ccc2-c3c(-c2c1)ccc1c3c2ccccc2c2c1c(Cl)ccc2,C24H13Cl,xtb2,336.821,13,24,1,-62.526632710803,-62.22700949374,0.000216733083,-62.291628462529,9.889718731914,9.679795593291,0.001657178735,9.185707752289,0.2803685033,-9.8809,-7.5765,2.304383543642,1.838,254.337226,0.003 0.674 -0.263,0.01147516,0.005422978,0.003762773
3-0184,monoCl,DTMKJUCUDDGDAO-UHFFFAOYSA-N,c1ccc2-c3c(-c2c1)ccc1c3c2ccccc2c2c1c(Cl)ccc2,C24H13Cl,r2scan,336.821,13,24,1,-1382.317304803164,-1382.011453047,0.0002097868,-1382.0740009689,7.765593506374,7.5494400082,0.0017792004,7.018971249,0.2871574688,-5.0559,-2.5359,2.52,1.70123,319.86603,0.03018 0.58917 -0.31613,0.011428,0.005319,0.00371
3-0184,monoCl,DTMKJUCUDDGDAO-UHFFFAOYSA-N,c1ccc2-c3c(-c2c1)ccc1c3c2ccccc2c2c1c(Cl)ccc2,C24H13Cl,d4tzvp,336.821,13,24,1,-1383.324770188829,-1383.0189184326,0.0002097868,-1383.0814663545,7.659617857037,7.4434643586,0.0017792004,6.9129956007,0.2871574688,-7.6337,0.0055,7.6392,1.71025,305.22436,0.07401 0.58492 -0.32422,0.011428,0.005319,0.00371
3-0185,monoCl,DTXBMLTZCRBNSS-UHFFFAOYSA-N,Clc1cc2ccc3c4c2c(c1)ccc4cc1c3cc2ccccc2c1,C24H13Cl,xtb2,336.821,13,24,1,-62.616735328916,-62.316900284851,0.000211555862,-62.37997566502,9.979821350027,9.769686384402,0.001662355956,9.27405495478,0.281074883361,-9.7937,-8.1038,1.689858186797,2.861,257.247701,1.093 -0.268 0.000,0.02349363,0.003180627,0.00280137
3-0185,monoCl,DTXBMLTZCRBNSS-UHFFFAOYSA-N,Clc1cc2ccc3c4c2c(c1)ccc4cc1c3cc2ccccc2c1,C24H13Cl,r2scan,336.821,13,24,1,-1382.423715034216,-1382.1176213002,0.0002060735,-1382.1790621098,7.872003737426,7.6556082614,0.0017829137,7.1240323899,0.2878106922,-4.933,-2.9917,1.9413,2.57758,362.50758,0.98609 -0.23659 -0.00002,0.023261,0.003157,0.00278
3-0185,monoCl,DTXBMLTZCRBNSS-UHFFFAOYSA-N,Clc1cc2ccc3c4c2c(c1)ccc4cc1c3cc2ccccc2c1,C24H13Cl,d4tzvp,336.821,13,24,1,-1383.420993508946,-1383.1148997749,0.0002060735,-1383.1763405845,7.755841177154,7.5394457009,0.0017829137,7.0078698307,0.2878106922,-7.2282,-0.773,6.4552,2.56411,344.39251,0.97866 -0.24465 -0.00003,0.023261,0.003157,0.00278
3-0186,monoCl,DTYQZDBMNGYNHZ-UHFFFAOYSA-N,c1ccc2c(c1)c1c3cc4ccccc4cc3ccc1c1c2cc(Cl)cc1,C26H15Cl,xtb2,362.859,15,26,1,-67.901586121689,-67.566276333855,0.000226291,-67.633744995431,10.891113872198,10.654946276324,0.001836903124,10.107273608519,0.314576325632,-9.8543,-7.7829,2.071341031141,2.409,279.818585,-0.910 -0.028 -0.264,0.01365997,0.003205006,0.002719482
3-0186,monoCl,DTYQZDBMNGYNHZ-UHFFFAOYSA-N,c1ccc2c(c1)c1c3cc4ccccc4cc3ccc1c1c2cc(Cl)cc1,C26H15Cl,r2scan,362.859,15,26,1,-1459.806273068383,-1459.4631923751,0.0002182435,-1459.5282616809,8.595586225687,8.3516457123,0.0019714599,7.7638547918,0.3230787828,-5.0562,-2.6987,2.3575,2.20657,366.23242,-0.83971 -0.01554 -0.21972,0.013564,0.003165,0.002677
3-0186,monoCl,DTYQZDBMNGYNHZ-UHFFFAOYSA-N,c1ccc2c(c1)c1c3cc4ccccc4cc3ccc1c1c2cc(Cl)cc1,C26H15Cl,d4tzvp,362.859,15,26,1,-1460.894949411077,-1460.5518687178,0.0002182435,-1460.6169380236,8.474116109039,8.2301755954,0.0019714599,7.6423846764,0.3230787828,-7.4904,-0.3638,7.1266,2.22214,347.9802,-0.84469 -0.00575 -0.22531,0.013564,0.003165,0.002677
3-0187,monoCl,DVTFDAWLFPUYDK-UHFFFAOYSA-N,c1cc2cc3ccccc3cc2c2c1ccc1c2c2c(Cl)cccc2cc1,C26H15Cl,xtb2,362.859,15,26,1,-67.896284057259,-67.561712348877,0.000223845059,-67.628451753131,10.885811807768,10.650382291346,0.001839349065,10.101980366219,0.313974345774,-9.8026,-7.6006,2.202021108681,1.422,279.945296,0.298 -0.102 -0.462,0.009359064,0.006003928,0.00431288
3-0187,monoCl,DVTFDAWLFPUYDK-UHFFFAOYSA-N,c1cc2cc3ccccc3cc2c2c1ccc1c2c2c(Cl)cccc2cc1,C26H15Cl,r2scan,362.859,15,26,1,-1459.793282055299,-1459.4508533241,0.0002151489,-1459.514999961,8.582595212603,8.3393066613,0.0019745545,7.7505930719,0.322641463,-4.9685,-2.535,2.4335,1.30981,341.62831,0.30106 -0.18944 -0.37285,0.009138,0.005875,0.004242
3-0187,monoCl,DVTFDAWLFPUYDK-UHFFFAOYSA-N,c1cc2cc3ccccc3cc2c2c1ccc1c2c2c(Cl)cccc2cc1,C26H15Cl,d4tzvp,362.859,15,26,1,-1460.880395526731,-1460.5379667955,0.0002151489,-1460.6021134324,8.459562224693,8.2162736731,0.0019745545,7.6275600852,0.322641463,-7.4411,-0.1617,7.2794,1.41812,328.54362,0.35085 -0.20836 -0.38048,0.009138,0.005875,0.004242
3-0188,monoCl,DWPCDFMPDOLKFJ-UHFFFAOYSA-N,c1ccc2c(c1)c1ccc3c(c1cc2)c1c(cc3)ccc2c1cccc2Cl,C26H15Cl,xtb2,362.859,15,26,1,-67.902594616282,-67.567372948118,0.000224550695,-67.634322737881,10.892122366791,10.656042890587,0.001838643429,10.107851350969,0.314624528648,-10.0838,-7.5126,2.571235818383,2.195,279.837041,0.692 0.476 0.198,0.01082275,0.004142191,0.003137029
3-0188,monoCl,DWPCDFMPDOLKFJ-UHFFFAOYSA-N,c1ccc2c(c1)c1ccc3c(c1cc2)c1c(cc3)ccc2c1cccc2Cl,C26H15Cl,r2scan,362.859,15,26,1,-1459.805618255107,-1459.4624945824,0.0002161935,-1459.5269526815,8.594931412411,8.3509479196,0.0019735099,7.7625457924,0.3233223009,-5.3813,-2.4203,2.961,2.04235,347.61643,0.66303 0.41669 0.17994,0.010834,0.004026,0.003073
3-0188,monoCl,DWPCDFMPDOLKFJ-UHFFFAOYSA-N,c1ccc2c(c1)c1ccc3c(c1cc2)c1c(cc3)ccc2c1cccc2Cl,C26H15Cl,d4tzvp,362.859,15,26,1,-1460.89484301225,-1460.5517193396,0.0002161935,-1460.6161774387,8.474009710212,8.2300262172,0.0019735099,7.6416240915,0.3233223009,-7.9193,-0.0278,7.8915,2.02402,333.38088,0.65268 0.41726 0.18437,0.010834,0.004026,0.003073
3-0189,monoCl,DWRDUCZLTBNCNK-UHFFFAOYSA-N,c1c(Cl)cc2c3c1cc1ccc4c5c1c3c(cc2)cc5ccc4,C22H11Cl,xtb2,310.783,11,22,1,-57.330853143042,-57.065950563404,0.000195469614,-57.124229828856,9.067497434755,8.882852820037,0.001489159898,8.438859795288,0.24831519197,-9.8227,-8.1514,1.671287830966,2.773,234.636097,-1.050 -0.295 0.000,0.02041455,0.005233714,0.004165737
3-0189,monoCl,DWRDUCZLTBNCNK-UHFFFAOYSA-N,c1c(Cl)cc2c3c1cc1ccc4c5c1c3c(cc2)cc5ccc4,C22H11Cl,r2scan,310.783,11,22,1,-1305.03829316909,-1304.7681095176,0.0001917347,-1304.8252752046,7.145557418206,6.9556301028,0.0015965363,6.4796226539,0.2539046322,-4.9888,-2.9817,2.0071,2.54611,311.58101,-0.96101 -0.28256 0.00002,0.020224,0.005195,0.004133
3-0189,monoCl,DWRDUCZLTBNCNK-UHFFFAOYSA-N,c1c(Cl)cc2c3c1cc1ccc4c5c1c3c(cc2)cc5ccc4,C22H11Cl,d4tzvp,310.783,11,22,1,-1305.948196742565,-1305.6780130911,0.0001917347,-1305.7351787781,7.038725381019,6.8487980655,0.0015965363,6.3727906177,0.2539046322,-7.2011,-0.8458,6.3553,2.55138,303.15982,-0.96269 -0.28421 0.00003,0.020224,0.005195,0.004133
3-0190,monoCl,DWYVOVVXOCQCQD-UHFFFAOYSA-N,c1cc2cc3ccc4c5c3c3c2c(c1)ccc3cc5ccc4Cl,C22H11Cl,xtb2,310.783,11,22,1,-57.3306587943,-57.065629241293,0.000195440211,-57.123899740108,9.067303086013,8.882531497926,0.001489189301,8.43852970654,0.248459595201,-9.734,-8.1057,1.628286153959,2.181,234.659828,-0.774 0.371 0.000,0.0200664,0.005584394,0.004368624
3-0190,monoCl,DWYVOVVXOCQCQD-UHFFFAOYSA-N,c1cc2cc3ccc4c5c3c3c2c(c1)ccc3cc5ccc4Cl,C22H11Cl,r2scan,310.783,11,22,1,-1305.037842214363,-1304.7674715347,0.0001912404,-1304.8244898573,7.145106463479,6.9549921199,0.0015970306,6.4788373066,0.2541276431,-4.9026,-2.9383,1.9643,2.00701,311.45919,-0.70657 0.35246 0.00001,0.019885,0.005535,0.00433
3-0190,monoCl,DWYVOVVXOCQCQD-UHFFFAOYSA-N,c1cc2cc3ccc4c5c3c3c2c(c1)ccc3cc5ccc4Cl,C22H11Cl,d4tzvp,310.783,11,22,1,-1305.94799597407,-1305.6776252944,0.0001912404,-1305.734643617,7.038524612524,6.8484102688,0.0015970306,6.3722554566,0.2541276431,-7.1121,-0.8219,6.2902,2.09529,303.21691,-0.73681 0.36964 -0.00000,0.019885,0.005535,0.00433
3-0191,monoCl,DXAPNLGOYYJWPR-UHFFFAOYSA-N,c1ccc2-c3c(-c2c1)c1ccc2c(c1cc3)cc(cc2)Cl,C20H11Cl,xtb2,286.761,11,20,1,-52.93661928193,-52.685478385226,0.000197196578,-52.744272545028,8.259856316373,8.084252327829,0.001381026678,7.67249922283,0.234679039247,-9.9119,-7.7062,2.205696873438,2.196,214.216009,-0.693 -0.515 -0.001,0.03110381,0.004432239,0.003879429
3-0191,monoCl,DXAPNLGOYYJWPR-UHFFFAOYSA-N,c1ccc2-c3c(-c2c1)c1ccc2c(c1cc3)cc(cc2)Cl,C20H11Cl,r2scan,286.761,11,20,1,-1228.717931665788,-1228.4619268614,0.0001926586,-1228.5193680127,6.48962808944,6.3091586602,0.0014822,5.8672405954,0.2398962286,-5.0598,-2.6207,2.4391,1.91258,280.58952,-0.57867 -0.48097 -0.00006,0.030905,0.004381,0.003837
3-0191,monoCl,DXAPNLGOYYJWPR-UHFFFAOYSA-N,c1ccc2-c3c(-c2c1)c1ccc2c(c1cc3)cc(cc2)Cl,C20H11Cl,d4tzvp,286.761,11,20,1,-1229.562506863054,-1229.3065020586998,0.0001926586,-1229.36394321,6.398657417074,6.2181879877,0.0014822,5.776269924,0.2398962286,-7.6255,-0.0942,7.5313,1.87841,266.19616,-0.55671 -0.48601 -0.00005,0.030905,0.004381,0.003837
3-0192,monoCl,DXIGEXZWWKGNRX-UHFFFAOYSA-N,c1cc(Cl)c2-c3c(-c2c1)cc1c(c3)cc2c(c1)cccc2,C20H11Cl,xtb2,286.761,11,20,1,-52.940247922977,-52.689283997958,0.000196831696,-52.747969368173,8.26348495742,8.088057940561,0.00138139156,7.676196045975,0.234556500488,-10.0498,-7.6515,2.398281008706,1.759,214.44152,0.207 -0.660 0.000,0.02939744,0.004306265,0.003756061
3-0192,monoCl,DXIGEXZWWKGNRX-UHFFFAOYSA-N,c1cc(Cl)c2-c3c(-c2c1)cc1c(c3)cc2c(c1)cccc2,C20H11Cl,r2scan,286.761,11,20,1,-1228.722952762271,-1228.4670769186,0.000191731,-1228.5242415133,6.494649185923,6.3143087174,0.0014831276,5.872114096,0.2398751256,-5.2341,-2.5889,2.6452,1.62982,301.53307,0.03736 -0.64012 0.00007,0.029108,0.004278,0.00373