id,subset,key,smiles,formula,level,mwt,nH,nC,nCl,E,H,S,G,dE,dH,dS,dG,zpe,homo,lumo,gap,Mu,alpha,tMu,rotA,rotB,rotC
2-0020,pubchemPCH,AWHOUOYGAJMCFA-UHFFFAOYSA-N,Clc1cc2ccc3c4c2c(c1)ccc4ccc3Cl,C16H8Cl2,xtb2,271.146,8,16,2,-47.484406165328,-47.288608700762,0.000181334259,-47.342673510191,6.678751842078,6.544328115392,0.001118104831,6.210965159349,0.181540363394,-10.3277,-8.006,2.321632916889,1.714,189.490764,0.329 0.589 -0.000,0.02671797,0.007046893,0.005576171
2-0020,pubchemPCH,AWHOUOYGAJMCFA-UHFFFAOYSA-N,Clc1cc2ccc3c4c2c(c1)ccc4ccc3Cl,C16H8Cl2,r2scan,271.146,8,16,2,-1534.792475749355,-1534.5926360104,0.0001774147,-1534.6455322006,5.270858290681,5.132391044,0.0012002271,4.7745432174,0.1859249072,-5.5085,-2.7426,2.7659,1.62371,227.71869,0.30045 0.56374 -0.00001,0.026495,0.00697,0.005518
2-0020,pubchemPCH,AWHOUOYGAJMCFA-UHFFFAOYSA-N,Clc1cc2ccc3c4c2c(c1)ccc4ccc3Cl,C16H8Cl2,d4tzvp,271.146,8,16,2,-1535.51002207675,-1535.3101823377,0.0001774147,-1535.3630785279,5.200199554342,5.0617323075,0.0012002271,4.7038844817,0.1859249072,-7.9688,-0.4117,7.5571,1.66465,221.44924,0.29151 0.58646 -0.00000,0.026495,0.00697,0.005518
2-0021,pubchemPCH,AXLIBZIJTKPCHR-UHFFFAOYSA-N,c1c(Cl)c(Cl)cc2c1ccc(c2Cl)Cl,C10H4Cl4,xtb2,265.954,4,10,4,-41.674027180926,-41.555994556699,0.000178105946,-41.609096844391,4.237031871688,4.161488758301,0.000753047118,3.936967759589,0.104688303155,-10.9011,-8.136,2.765127045446,2.234,157.133322,0.236 0.847 0.000,0.03102433,0.007885607,0.006287486
2-0021,pubchemPCH,AXLIBZIJTKPCHR-UHFFFAOYSA-N,c1c(Cl)c(Cl)cc2c1ccc(c2Cl)Cl,C10H4Cl4,r2scan,265.954,4,10,4,-2224.112725924577,-2223.992050862,0.0001730131,-2224.0436347324,3.345505155345,3.2673187412,0.0008109113,3.0255454482,0.1077591683,-6.1026,-2.7535,3.3491,2.18977,175.51539,0.24246 0.82668 0.00005,0.030321,0.007815,0.006214
2-0021,pubchemPCH,AXLIBZIJTKPCHR-UHFFFAOYSA-N,c1c(Cl)c(Cl)cc2c1ccc(c2Cl)Cl,C10H4Cl4,d4tzvp,265.954,4,10,4,-2224.672208175309,-2224.5515331127,0.0001730131,-2224.6031169831,3.314758529799,3.2365721157,0.0008109113,2.9947988231,0.1077591683,-8.8803,-0.2199,8.6604,2.29159,169.87883,0.27226 0.85947 0.00006,0.030321,0.007815,0.006214
2-0022,pubchemPCH,AXNCYYJNXAOOJQ-UHFFFAOYSA-N,c1cc(Cl)c2c(c1)cc(cc2Cl)Cl,C10H5Cl3,xtb2,231.509,5,10,3,-37.622024948714,-37.495704930058,0.000166345112,-37.545300725168,4.274072010501,4.190241502685,0.000747903556,3.967254057052,0.114340682736,-10.6842,-7.9044,2.77980672385,2.523,144.638336,0.336 -0.934 0.000,0.02882075,0.0136824,0.009277833
2-0022,pubchemPCH,AXNCYYJNXAOOJQ-UHFFFAOYSA-N,c1cc(Cl)c2c(c1)cc(cc2Cl)Cl,C10H5Cl3,r2scan,231.509,5,10,3,-1764.524132331673,-1764.3950871135,0.0001645186,-1764.444138341,3.373633165209,3.2870765955,0.000802494,3.0478129253,0.1173325692,-5.856,-2.5993,3.2567,2.54073,157.12626,0.30282 -0.95260 0.00002,0.028244,0.013417,0.009096
2-0022,pubchemPCH,AXNCYYJNXAOOJQ-UHFFFAOYSA-N,c1cc(Cl)c2c(c1)cc(cc2Cl)Cl,C10H5Cl3,d4tzvp,231.509,5,10,3,-1765.04740909297,-1764.9183638748,0.0001645186,-1764.9674151023,3.3372354097,3.25067884,0.000802494,3.0114151703,0.1173325692,-8.6049,-0.068,8.5369,2.66195,153.69179,0.30205 -1.00277 0.00001,0.028244,0.013417,0.009096
2-0023,pubchemPCH,AYQOJAIIFVVLQD-UHFFFAOYSA-N,c1c2c(cc3c(c2)cc(cc3)Cl)cc2c1cc1c(c2)cc(cc1)Cl,C22H12Cl2,xtb2,347.244,12,22,2,-62.347585595129,-62.069853984408,0.000215672073,-62.134156613097,9.208221987945,9.015469398904,0.001568737885,8.547750197541,0.258398770302,-9.7194,-8.501,1.218403946163,0.002,252.02976,-0.000 -0.000 0.001,0.03691291,0.002029272,0.001923528
2-0023,pubchemPCH,AYQOJAIIFVVLQD-UHFFFAOYSA-N,c1c2c(cc3c(c2)cc(cc3)Cl)cc2c1cc1c(c2)cc(cc1)Cl,C22H12Cl2,r2scan,347.244,12,22,2,-1765.766741497639,-1765.4830834362,0.0002090003,-1765.5453968696,7.262740772617,7.0640600082,0.0016834863,6.5621284146,0.2648735878,-4.7424,-3.457,1.2854,4E-05,381.28701,-0.00000 0.00001 -0.00001,0.036435,0.002016,0.00191
2-0023,pubchemPCH,AYQOJAIIFVVLQD-UHFFFAOYSA-N,c1c2c(cc3c(c2)cc(cc3)Cl)cc2c1cc1c(c2)cc(cc1)Cl,C22H12Cl2,d4tzvp,347.244,12,22,2,-1766.720359460497,-1766.4367013991002,0.0002090003,-1766.4990148325,7.153553082031,6.9548723175,0.0016834863,6.4529407251,0.2648735878,-7.0155,-1.2909,5.7246,6E-05,358.5519,-0.00001 -0.00000 -0.00002,0.036435,0.002016,0.00191
2-0024,pubchemPCH,AYUPOTWFYYVIGE-UHFFFAOYSA-N,c1c2cc(Cl)cc3c2c2c(c1)cc(cc2cc3)Cl,C16H8Cl2,xtb2,271.146,8,16,2,-47.484569968224,-47.288891670496,0.000176633025,-47.341554806966,6.678915644974,6.544611085126,0.001122806065,6.209846456124,0.181402749471,-10.4874,-8.0557,2.431727760719,0.0,189.469963,-0.000 -0.000 0.000,0.03411272,0.006054879,0.005142164
2-0024,pubchemPCH,AYUPOTWFYYVIGE-UHFFFAOYSA-N,c1c2cc(Cl)cc3c2c2c(c1)cc(cc2cc3)Cl,C16H8Cl2,r2scan,271.146,8,16,2,-1534.792893907436,-1534.5932288632,0.0001732755,-1534.6448909563,5.271276448762,5.1329838968,0.0012043663,4.7739019731,0.1857257496,-5.653,-2.7873,2.8657,7E-05,229.37577,0.00003 -0.00000 -0.00000,0.033821,0.005999,0.005095
2-0024,pubchemPCH,AYUPOTWFYYVIGE-UHFFFAOYSA-N,c1c2cc(Cl)cc3c2c2c(c1)cc(cc2cc3)Cl,C16H8Cl2,d4tzvp,271.146,8,16,2,-1535.510146727551,-1535.3104816834,0.0001732755,-1535.3621437765,5.200324205143,5.0620316532,0.0012043663,4.7029497303,0.1857257496,-8.1147,-0.4289,7.6858,5E-05,222.64249,-0.00001 0.00001 0.00001,0.033821,0.005999,0.005095
2-0025,pubchemPCH,AZAKVAGUZKELDZ-UHFFFAOYSA-N,c1c(Cl)c(Cl)c2c(c1)ccc1c2cccc1Cl,C14H7Cl3,xtb2,281.569,7,14,3,-47.216557682761,-47.042002364393,0.000186546288,-47.097621140298,5.908453731216,5.790551093968,0.001023390942,5.48542708414,0.159770120049,-10.5792,-7.749,2.830226885525,1.376,184.514599,-0.053 0.471 -0.261,0.02654433,0.007055969,0.005646823
2-0025,pubchemPCH,AZAKVAGUZKELDZ-UHFFFAOYSA-N,c1c(Cl)c(Cl)c2c(c1)ccc1c2cccc1Cl,C14H7Cl3,r2scan,281.569,7,14,3,-1918.134009325144,-1917.9553366086,0.0001809535,-1918.0092878954,4.660102438238,4.538081253,0.0011001877,4.2100601771,0.1644222767,-5.786,-2.4508,3.3352,1.31596,210.57283,0.00108 0.42653 -0.29345,0.026277,0.006926,0.005567
2-0025,pubchemPCH,AZAKVAGUZKELDZ-UHFFFAOYSA-N,c1c(Cl)c(Cl)c2c(c1)ccc1c2cccc1Cl,C14H7Cl3,d4tzvp,281.569,7,14,3,-1918.818093948461,-1918.639421232,0.0001809535,-1918.6933725188,4.606617379379,4.4845961942,0.0011001877,4.156575119,0.1644222767,-8.4599,0.0341,8.494,1.36993,204.28216,-0.00741 0.44593 -0.30260,0.026277,0.006926,0.005567
2-0026,pubchemPCH,AZVBHHWOFKCHAW-UHFFFAOYSA-N,Clc1c(Cl)c(Cl)c2c3c1c(Cl)c(Cl)c(c3c1c3c2c(Cl)c(Cl)c(c3c(c(c1Cl)Cl)Cl)Cl)Cl,C20Cl12,xtb2,665.656,0,20,12,-97.509834906257,-97.349148854525,0.000296567216,-97.437570370075,7.853605859425,7.768456715853,0.001467604396,7.330890464331,0.130154078782,-10.8396,-9.3522,1.487312750169,0.0,355.283161,0.000 -0.000 -0.000,0.003142829,0.002200178,0.001443521
2-0026,pubchemPCH,AZVBHHWOFKCHAW-UHFFFAOYSA-N,Clc1c(Cl)c(Cl)c2c3c1c(Cl)c(Cl)c(c3c1c3c2c(Cl)c(Cl)c(c3c(c(c1Cl)Cl)Cl)Cl)Cl,C20Cl12,r2scan,665.656,0,20,12,-6284.097630375285,-6283.9335381575,0.0002837179,-6284.0181286456,6.085389168489,5.9968323255,0.0015771705,5.5265986748,0.1347359583,-5.818,-4.0405,1.7775,8E-05,450.73981,-0.00000 -0.00003 -0.00000,0.003113,0.002196,0.001437
2-0026,pubchemPCH,AZVBHHWOFKCHAW-UHFFFAOYSA-N,Clc1c(Cl)c(Cl)c2c3c1c(Cl)c(Cl)c(c3c1c3c2c(Cl)c(Cl)c(c3c(c(c1Cl)Cl)Cl)Cl)Cl,C20Cl12,d4tzvp,665.656,0,20,12,-6285.338467664248,-6285.1743754464005,0.0002837179,-6285.2589659345,6.054582633628,5.9660257912,0.0015771705,5.4957921405,0.1347359583,-8.3117,-1.8756,6.4361,8E-05,418.12554,0.00001 0.00003 0.00000,0.003113,0.002196,0.001437
2-0027,pubchemPCH,BAOLNVSMVTYGDA-UHFFFAOYSA-N,c1c(Cl)cc2c(c1)c(Cl)c(c(c2Cl)Cl)Cl,C10H3Cl5,xtb2,300.399,3,10,5,-45.717894895087,-45.608107075468,0.000189270901,-45.664538194666,4.191857214824,4.124558906045,0.000758786559,3.898326693178,0.095054554649,-10.9666,-8.3328,2.633805668408,1.459,169.809215,0.448 0.359 0.000,0.01673204,0.008349895,0.005570175
2-0027,pubchemPCH,BAOLNVSMVTYGDA-UHFFFAOYSA-N,c1c(Cl)cc2c(c1)c(Cl)c(c(c2Cl)Cl)Cl,C10H3Cl5,r2scan,300.399,3,10,5,-2683.686744536458,-2683.5745459186,0.0001832563,-2683.6291837862,3.302802164458,3.233092195,0.0008175799,2.9893306335,0.0979187769,-6.1327,-2.9075,3.2252,1.31322,189.3808,0.35428 0.37605 0.00004,0.016471,0.008272,0.005507
2-0027,pubchemPCH,BAOLNVSMVTYGDA-UHFFFAOYSA-N,c1c(Cl)cc2c(c1)c(Cl)c(c(c2Cl)Cl)Cl,C10H3Cl5,d4tzvp,300.399,3,10,5,-2684.283422863245,-2684.1712242453,0.0001832563,-2684.2258621129,3.278697255495,3.2089872861,0.0008175799,2.9652257249,0.0979187769,-8.9018,-0.4158,8.486,1.38165,182.78965,0.38209 0.38663 0.00003,0.016471,0.008272,0.005507
2-0028,pubchemPCH,BAQQGMIGGDSPOD-UHFFFAOYSA-N,c1ccc2c(c1)ccc1c2c(Cl)ccc1Cl,C14H8Cl2,xtb2,247.124,8,14,2,-43.167145475125,-42.984306786083,0.000176677678,-43.036983235633,5.948083894605,5.821897886683,0.001016355156,5.518871596161,0.169352471583,-10.4729,-7.5647,2.908196859799,1.067,172.181433,-0.397 0.123 0.058,0.02194582,0.01202831,0.007864955
2-0028,pubchemPCH,BAQQGMIGGDSPOD-UHFFFAOYSA-N,c1ccc2c(c1)ccc1c2c(Cl)ccc1Cl,C14H8Cl2,r2scan,247.124,8,14,2,-1458.556205561602,-1458.3690871655,0.0001716178,-1458.4202550242,4.699020277464,4.5685534127,0.0010926116,4.2427911744,0.1740856438,-5.7102,-2.3305,3.3797,1.00278,193.9057,-0.37308 0.09688 0.08410,0.021532,0.011863,0.007748
2-0028,pubchemPCH,BAQQGMIGGDSPOD-UHFFFAOYSA-N,c1ccc2c(c1)ccc1c2c(Cl)ccc1Cl,C14H8Cl2,d4tzvp,247.124,8,14,2,-1459.204440812938,-1459.0173224168,0.0001716178,-1459.0684902755,4.640240206096,4.5097733412,0.0010926116,4.1840111037,0.1740856438,-8.386,0.163,8.549,0.90389,189.79506,-0.33414 0.08887 0.08315,0.021532,0.011863,0.007748
2-0029,pubchemPCH,BEDGVHXJXRGYBD-UHFFFAOYSA-N,Clc1cc2cc(Cl)c3c4c2c(c1)ccc4ccc3,C16H8Cl2,xtb2,271.146,8,16,2,-47.484158084837,-47.288366413745,0.000181609046,-47.342513150926,6.678503761587,6.544085828375,0.001117830044,6.210804800084,0.181523288595,-10.3896,-8.0141,2.375472274464,2.414,189.5127,0.544 0.779 0.000,0.01892646,0.008696916,0.005958788
2-0029,pubchemPCH,BEDGVHXJXRGYBD-UHFFFAOYSA-N,Clc1cc2cc(Cl)c3c4c2c(c1)ccc4ccc3,C16H8Cl2,r2scan,271.146,8,16,2,-1534.792184754004,-1534.5923630902,0.000177668,-1534.6453348101,5.27056729533,5.1321181238,0.0011999738,4.7743458269,0.185876547,-5.5717,-2.7527,2.819,2.283,225.34776,0.52058 0.73194 0.00002,0.018669,0.008629,0.005902
2-0029,pubchemPCH,BEDGVHXJXRGYBD-UHFFFAOYSA-N,Clc1cc2cc(Cl)c3c4c2c(c1)ccc4ccc3,C16H8Cl2,d4tzvp,271.146,8,16,2,-1535.510038331497,-1535.3102166677002,0.000177668,-1535.3631883876,5.200215809089,5.0617666375,0.0011999738,4.7039943414,0.185876547,-8.0351,-0.4095,7.6256,2.27784,219.56632,0.51010 0.73681 0.00002,0.018669,0.008629,0.005902
2-0030,pubchemPCH,BFCDMNMRFYHKAO-UHFFFAOYSA-N,c1cc2cc(Cl)c3c4c2c(c1)ccc4ccc3Cl,C16H8Cl2,xtb2,271.146,8,16,2,-47.476699377187,-47.280899889029,0.000180784169,-47.334800688915,6.671045053937,6.536619303659,0.001118654921,6.203092338073,0.181565718087,-10.1699,-7.9376,2.232325069847,3.341,189.642352,1.071 0.761 -0.000,0.02038814,0.01028104,0.006834589
2-0030,pubchemPCH,BFCDMNMRFYHKAO-UHFFFAOYSA-N,c1cc2cc(Cl)c3c4c2c(c1)ccc4ccc3Cl,C16H8Cl2,r2scan,271.146,8,16,2,-1534.777287931595,-1534.5776518718,0.000180881,-1534.6315815359,5.255670472921,5.1174069054,0.0011967608,4.7605925527,0.1855804665,-5.3513,-2.6806,2.6707,3.27727,224.39051,1.04114 0.76056 -0.00004,0.019939,0.01016,0.006731
2-0030,pubchemPCH,BFCDMNMRFYHKAO-UHFFFAOYSA-N,c1cc2cc(Cl)c3c4c2c(c1)ccc4ccc3Cl,C16H8Cl2,d4tzvp,271.146,8,16,2,-1535.495770797682,-1535.2961347379,0.000180881,-1535.350064402,5.185948275274,5.0476847077,0.0011967608,4.6908703558,0.1855804665,-7.8117,-0.3737,7.438,3.42594,218.83505,1.09658 0.78370 -0.00004,0.019939,0.01016,0.006731
2-0031,pubchemPCH,BFRRJXVSQTZQHM-UHFFFAOYSA-N,c1c(Cl)c(Cl)c(c2c1ccc(c2Cl)Cl)Cl,C10H3Cl5,xtb2,300.399,3,10,5,-45.712139628764,-45.602462997067,0.000187811918,-45.658459120272,4.186101948501,4.118914827644,0.000760245542,3.892247618784,0.095038814418,-10.8654,-8.2998,2.565540772247,2.883,169.837225,0.237 1.109 -0.000,0.02201151,0.007686135,0.005696864
2-0031,pubchemPCH,BFRRJXVSQTZQHM-UHFFFAOYSA-N,c1c(Cl)c(Cl)c(c2c1ccc(c2Cl)Cl)Cl,C10H3Cl5,r2scan,300.399,3,10,5,-2683.67207245674,-2683.5599860066,0.0001822371,-2683.6143199856,3.28813008474,3.218532283,0.0008185991,2.9744668329,0.0979380071,-6.0213,-2.8803,3.141,2.8016,189.25088,0.20788 1.08141 -0.04691,0.021454,0.007548,0.005626
2-0031,pubchemPCH,BFRRJXVSQTZQHM-UHFFFAOYSA-N,c1c(Cl)c(Cl)c(c2c1ccc(c2Cl)Cl)Cl,C10H3Cl5,d4tzvp,300.399,3,10,5,-2684.268422594141,-2684.156336144,0.0001822371,-2684.210670123,3.263696986391,3.1940991848,0.0008185991,2.950033735,0.0979380071,-8.7852,-0.3913,8.3939,2.98564,182.37842,0.22781 1.15128 -0.04880,0.021454,0.007548,0.005626
2-0032,pubchemPCH,BFSLIPDTEZRICP-UHFFFAOYSA-N,c1c(Cl)cc2c(c1)c1ccccc1c(c2Cl)Cl,C14H7Cl3,xtb2,281.569,7,14,3,-47.223758198713,-47.049114637845,0.00018823691,-47.105237472543,5.915654247168,5.79766336742,0.00102170032,5.493043416385,0.159725029973,-10.6461,-7.8306,2.815449157374,3.486,184.586009,-0.733 -1.159 0.000,0.01757607,0.008637928,0.005791593
2-0032,pubchemPCH,BFSLIPDTEZRICP-UHFFFAOYSA-N,c1c(Cl)cc2c(c1)c1ccccc1c(c2Cl)Cl,C14H7Cl3,r2scan,281.569,7,14,3,-1918.145391426709,-1917.9672264965,0.0001837101,-1918.0219996654,4.671484539803,4.5499711409,0.0010974311,4.2227719471,0.1635347543,-5.9409,-2.5197,3.4212,3.27167,212.19656,-0.71720 -1.06882 0.00017,0.017358,0.008551,0.005729
2-0032,pubchemPCH,BFSLIPDTEZRICP-UHFFFAOYSA-N,c1c(Cl)cc2c(c1)c1ccccc1c(c2Cl)Cl,C14H7Cl3,d4tzvp,281.569,7,14,3,-1918.830235387069,-1918.6520704569,0.0001837101,-1918.7068436258,4.618758817987,4.4972454191,0.0010974311,4.170046226,0.1635347543,-8.6444,-0.0325,8.6119,3.32739,205.66475,-0.73142 -1.08567 0.00017,0.017358,0.008551,0.005729
2-0033,pubchemPCH,BGAFNIYXQJQJGK-UHFFFAOYSA-N,c1c(Cl)cc2-c3c4c(-c2c1)c1ccccc1cc4ccc3,C20H11Cl,xtb2,286.761,11,20,1,-53.001504595054,-52.749879373646,0.000194196983,-52.807779204151,8.324741629497,8.148653316249,0.001384026273,7.736005881953,0.235526870176,-10.0328,-8.2173,1.815503649091,2.91,217.158792,1.097 0.328 -0.000,0.0165332,0.00673135,0.004783705
2-0033,pubchemPCH,BGAFNIYXQJQJGK-UHFFFAOYSA-N,c1c(Cl)cc2-c3c4c(-c2c1)c1ccccc1cc4ccc3,C20H11Cl,r2scan,286.761,11,20,1,-1228.789797580945,-1228.5328597607,0.0001892919,-1228.5892971516,6.561494004597,6.3800915595,0.0014855667,5.9371697343,0.2412269256,-5.2436,-3.1446,2.099,2.82898,272.66763,1.06500 0.32328 -0.00000,0.01642,0.006661,0.004739
2-0033,pubchemPCH,BGAFNIYXQJQJGK-UHFFFAOYSA-N,c1c(Cl)cc2-c3c4c(-c2c1)c1ccccc1cc4ccc3,C20H11Cl,d4tzvp,286.761,11,20,1,-1229.631667289559,-1229.3747294694,0.0001892919,-1229.4311668603,6.467817843579,6.2864153984,0.0014855667,5.8434935743,0.2412269256,-7.6983,-0.8651,6.8332,2.75393,263.95354,1.03433 0.32257 -0.00000,0.01642,0.006661,0.004739
2-0034,pubchemPCH,BHGZMTXYPSGIKZ-UHFFFAOYSA-N,Clc1c(Cl)c(Cl)c2-c3c(-c2c1)c(Cl)c(c(c3Cl)Cl)Cl,C12HCl7,xtb2,393.311,1,12,7,-58.028842381019,-57.923326772821,0.000221884139,-57.989481528751,4.738127215976,4.679822175378,0.000866388369,4.421508482521,0.086594156741,-11.0062,-8.7844,2.22172451918,0.828,209.018794,-0.024 0.325 0.000,0.01123783,0.004162388,0.003037373
2-0034,pubchemPCH,BHGZMTXYPSGIKZ-UHFFFAOYSA-N,Clc1c(Cl)c(Cl)c2-c3c(-c2c1)c(Cl)c(c(c3Cl)Cl)Cl,C12HCl7,r2scan,393.311,1,12,7,-3678.963894623618,-3678.8569433693,0.0002159076,-3678.9213162138,3.682076871546,3.6223352265,0.0009321646,3.3444101907,0.0881817407,-5.9579,-3.3172,2.6407,0.91252,253.91009,0.02879 0.35785 -0.00000,0.011066,0.004142,0.003014
2-0034,pubchemPCH,BHGZMTXYPSGIKZ-UHFFFAOYSA-N,Clc1c(Cl)c(Cl)c2-c3c(-c2c1)c(Cl)c(c(c3Cl)Cl)Cl,C12HCl7,d4tzvp,393.311,1,12,7,-3679.705281610826,-3679.5983303565,0.0002159076,-3679.662703201,3.66038216303,3.6006405183,0.0009321646,3.3227154826,0.0881817407,-8.6968,-0.7583,7.9385,0.96982,238.51931,0.02740 0.38056 -0.00002,0.011066,0.004142,0.003014
2-0035,pubchemPCH,BIVDISPRSYAHQQ-UHFFFAOYSA-N,c1cc(Cl)c2c(c1)c(Cl)c(cc2Cl)Cl,C10H4Cl4,xtb2,265.954,4,10,4,-41.667446641119,-41.549365981925,0.000177281236,-41.602222382353,4.230451331881,4.154860183527,0.000753871828,3.930093297551,0.104755930443,-10.743,-8.1167,2.626293713548,1.719,157.174392,0.378 -0.561 -0.000,0.0228307,0.01101913,0.007432075
2-0035,pubchemPCH,BIVDISPRSYAHQQ-UHFFFAOYSA-N,c1cc(Cl)c2c(c1)c(Cl)c(cc2Cl)Cl,C10H4Cl4,r2scan,265.954,4,10,4,-2224.099119291913,-2223.9784648618,0.0001748357,-2224.0305921392,3.331898522681,3.253732741,0.0008090887,3.012502855,0.1076399923,-5.9155,-2.7662,3.1493,1.75736,171.19655,0.31112 -0.61743 -0.00014,0.022232,0.010859,0.007295
2-0035,pubchemPCH,BIVDISPRSYAHQQ-UHFFFAOYSA-N,c1cc(Cl)c2c(c1)c(Cl)c(cc2Cl)Cl,C10H4Cl4,d4tzvp,265.954,4,10,4,-2224.659324682359,-2224.5386702523,0.0001748357,-2224.5907975297,3.301875036849,3.2237092553,0.0008090887,2.9824793697,0.1076399923,-8.6589,-0.2758,8.3831,1.82361,166.75261,0.30970 -0.64716 -0.00015,0.022232,0.010859,0.007295
2-0036,pubchemPCH,BLHFPQWTFMXCEG-UHFFFAOYSA-N,c1ccc2c(c1Cl)c1c(Cl)cccc1cc2,C14H8Cl2,xtb2,247.124,8,14,2,-43.160275370997,-42.977888453509,0.00017263339,-43.029359098637,5.941213790477,5.815479554109,0.001020399444,5.511247459165,0.168987450636,-10.403,-7.5268,2.876149291972,2.705,172.213308,-0.000 1.064 0.000,0.02061352,0.01575597,0.01011851
2-0036,pubchemPCH,BLHFPQWTFMXCEG-UHFFFAOYSA-N,c1ccc2c(c1Cl)c1c(Cl)cccc1cc2,C14H8Cl2,r2scan,247.124,8,14,2,-1458.544792676757,-1458.3581338467,0.0001677915,-1458.4081608798,4.687607392619,4.5576000939,0.0010964379,4.23069703,0.1737690944,-5.6161,-2.3273,3.2888,2.53762,190.77902,-0.00004 0.99836 0.00008,0.020269,0.01532,0.00997
2-0036,pubchemPCH,BLHFPQWTFMXCEG-UHFFFAOYSA-N,c1ccc2c(c1Cl)c1c(Cl)cccc1cc2,C14H8Cl2,d4tzvp,247.124,8,14,2,-1459.192167081647,-1459.0055082515,0.0001677915,-1459.0555352846002,4.627966474805,4.4979591759,0.0010964379,4.1710561128,0.1737690944,-8.3092,0.1798,8.489,2.62199,186.61104,-0.00004 1.03155 0.00009,0.020269,0.01532,0.00997
2-0037,pubchemPCH,BNJBAXUKHPPZDC-UHFFFAOYSA-N,Clc1ccc2c(c1)ccc1c2cc2cc(Cl)ccc2c1,C18H10Cl2,xtb2,297.184,10,18,2,-52.770174620797,-52.539520906876,0.000198039546,-52.598566397488,7.590962026945,7.431124164424,0.00129068185,7.046307369974,0.21423105382,-10.3018,-7.9259,2.375973026194,1.846,212.052025,-0.159 -0.709 -0.000,0.02643171,0.003868379,0.003374507
2-0037,pubchemPCH,BNJBAXUKHPPZDC-UHFFFAOYSA-N,Clc1ccc2c(c1)ccc1c2cc2cc(Cl)ccc2c1,C18H10Cl2,r2scan,297.184,10,18,2,-1612.177875274009,-1611.9424029824,0.0001925199,-1611.9998027846,5.997282269429,5.832624392,0.0013858381,5.4194366322,0.2194883555,-5.4512,-2.7565,2.6947,1.76716,272.29192,-0.15877 -0.67687 -0.00000,0.026127,0.003836,0.003345
2-0037,pubchemPCH,BNJBAXUKHPPZDC-UHFFFAOYSA-N,Clc1ccc2c(c1)ccc1c2cc2cc(Cl)ccc2c1,C18H10Cl2,d4tzvp,297.184,10,18,2,-1612.982260607601,-1612.746788316,0.0001925199,-1612.8041881182,5.916757114947,5.7520992374,0.0013858381,5.3389114786,0.2194883555,-7.9998,-0.3445,7.6553,1.81553,259.54405,-0.16001 -0.69612 -0.00000,0.026127,0.003836,0.003345
2-0038,pubchemPCH,BOAABDRSSZPYOZ-UHFFFAOYSA-N,c1c2c(Cl)cc3c4c2c2c(c1Cl)cc(c1c2c4c(cc3Cl)c(c1)Cl)Cl,C20H5Cl5,xtb2,422.525,5,20,5,-68.169038218135,-67.972084983849,0.000219154849,-68.03742600209,7.92307129635,7.796933913464,0.001343809941,7.39627697845,0.176955807905,-11.0857,-8.4705,2.615203191004,0.189,261.132686,-0.000 0.000 0.074,0.005502215,0.005502021,0.002845647
2-0038,pubchemPCH,BOAABDRSSZPYOZ-UHFFFAOYSA-N,c1c2c(Cl)cc3c4c2c2c(c1Cl)cc(c1c2c4c(cc3Cl)c(c1)Cl)Cl,C20H5Cl5,r2scan,422.525,5,20,5,-3065.892977088567,-3065.6910430563,0.0002152865,-3065.7552307317,6.192330472517,6.0612108543,0.0014399155,5.6318998762,0.1827970137,-6.3016,-3.2623,3.0393,0.28998,315.07383,-0.00030 0.00028 -0.11408,0.005468,0.005466,0.002835
2-0038,pubchemPCH,BOAABDRSSZPYOZ-UHFFFAOYSA-N,c1c2c(Cl)cc3c4c2c2c(c1Cl)cc(c1c2c4c(cc3Cl)c(c1)Cl)Cl,C20H5Cl5,d4tzvp,422.525,5,20,5,-3066.863665651969,-3066.6617316197,0.0002152865,-3066.7259192951,6.120771411709,5.9896517937,0.0014399155,5.5603408161,0.1827970137,-9.1565,-0.9301,8.2264,0.14133,299.82089,-0.00029 0.00010 -0.05560,0.005468,0.005466,0.002835