id,subset,key,smiles,formula,level,mwt,nH,nC,nCl,E,H,S,G,dE,dH,dS,dG,zpe,homo,lumo,gap,Mu,alpha,tMu,rotA,rotB,rotC
2-0039,pubchemPCH,BRXCWPYNIXJEJM-UHFFFAOYSA-N,c1cc2ccc3c4c2c(c1)c(Cl)cc4c(cc3)Cl,C16H8Cl2,xtb2,271.146,8,16,2,-47.483796228527,-47.287908689035,0.000181261437,-47.341951786609,6.678141905277,6.543628103665,0.001118177653,6.210243435767,0.181631065575,-10.2382,-7.9616,2.276576913518,3.17,189.542563,0.379 1.188 0.000,0.0156912,0.0115816,0.006663385
2-0039,pubchemPCH,BRXCWPYNIXJEJM-UHFFFAOYSA-N,c1cc2ccc3c4c2c(c1)c(Cl)cc4c(cc3)Cl,C16H8Cl2,r2scan,271.146,8,16,2,-1534.791616532083,-1534.5916400038,0.000177298,-1534.6445013919,5.269999073409,5.1313950374,0.0012003438,4.7735124087,0.1860603151,-5.4326,-2.7086,2.724,3.00076,223.40613,0.36850 1.12158 0.00007,0.015502,0.011464,0.00659
2-0039,pubchemPCH,BRXCWPYNIXJEJM-UHFFFAOYSA-N,c1cc2ccc3c4c2c(c1)c(Cl)cc4c(cc3)Cl,C16H8Cl2,d4tzvp,271.146,8,16,2,-1535.509801462357,-1535.3098249341,0.000177298,-1535.3626863221998,5.199978939949,5.0613749039,0.0012003438,4.703492276,0.1860603151,-7.8925,-0.3928,7.4997,3.07289,218.15905,0.36761 1.15170 0.00008,0.015502,0.011464,0.00659
2-0040,pubchemPCH,BTOWCBXXSWNHQP-UHFFFAOYSA-N,c1c(Cl)cc2c(c1Cl)c1ccccc1cc2,C14H8Cl2,xtb2,247.124,8,14,2,-43.168059340552,-42.985273081124,0.000176572353,-43.037918128207,5.948997760032,5.822864181724,0.001016460481,5.519806488735,0.169261694364,-10.6139,-7.5833,3.030640779696,2.467,172.211184,-0.781 0.573 -0.056,0.02782606,0.009714269,0.007272314
2-0040,pubchemPCH,BTOWCBXXSWNHQP-UHFFFAOYSA-N,c1c(Cl)cc2c(c1Cl)c1ccccc1cc2,C14H8Cl2,r2scan,247.124,8,14,2,-1458.558043011735,-1458.3710550353,0.000172249,-1458.4224110628,4.700857727597,4.5705212825,0.0010919804,4.244947213,0.1739042688,-5.8266,-2.3258,3.5008,2.26835,197.07453,-0.72867 0.50957 -0.07611,0.02736,0.009584,0.007168
2-0040,pubchemPCH,BTOWCBXXSWNHQP-UHFFFAOYSA-N,c1c(Cl)cc2c(c1Cl)c1ccccc1cc2,C14H8Cl2,d4tzvp,247.124,8,14,2,-1459.205826893329,-1459.0188389169,0.000172249,-1459.0701949444,4.641626286487,4.5112898413,0.0010919804,4.1857157726,0.1739042688,-8.4973,0.1961,8.6934,2.25821,192.00071,-0.71136 0.52657 -0.07748,0.02736,0.009584,0.007168
2-0041,pubchemPCH,BULBRUKKSUUPNT-UHFFFAOYSA-N,Clc1cc2cc(Cl)c(cc2c(c1)Cl)Cl,C10H4Cl4,xtb2,265.954,4,10,4,-41.676100672017,-41.558096867435,0.000178338381,-41.611268455711,4.239105362779,4.163591069037,0.000752814683,3.939139370909,0.104657975631,-10.978,-8.1768,2.801156133491,1.027,157.072667,0.312 0.257 -0.000,0.02292372,0.00831452,0.006101487
2-0041,pubchemPCH,BULBRUKKSUUPNT-UHFFFAOYSA-N,Clc1cc2cc(Cl)c(cc2c(c1)Cl)Cl,C10H4Cl4,r2scan,265.954,4,10,4,-2224.115683996603,-2223.9950287507,0.0001737144,-2224.0468217042,3.348463227371,3.2702966299,0.00081021,3.02873242,0.1077183147,-6.1359,-2.8131,3.3228,0.97671,177.03368,0.30579 0.23270 -0.00001,0.022401,0.008256,0.006033
2-0041,pubchemPCH,BULBRUKKSUUPNT-UHFFFAOYSA-N,Clc1cc2cc(Cl)c(cc2c(c1)Cl)Cl,C10H4Cl4,d4tzvp,265.954,4,10,4,-2224.674217400482,-2224.5535621546,0.0001737144,-2224.6053551080995,3.316767754972,3.2386011576,0.00081021,2.9970369481,0.1077183147,-8.9071,-0.2726,8.6345,1.08716,171.00962,0.35059 0.24501 -0.00001,0.022401,0.008256,0.006033
2-0042,pubchemPCH,BVFJTESUEYBUOL-UHFFFAOYSA-N,c1ccc2c(c1)ccc1c2cc(Cl)cc1,C14H9Cl,xtb2,212.679,9,14,1,-39.124927064243,-38.933937277193,0.000166447046,-38.983563463945,5.994907854748,5.860570748818,0.001009681392,5.559534241159,0.178765620701,-10.3779,-7.3262,3.051746605253,2.113,159.918102,-0.654 0.513 0.000,0.03781224,0.01172687,0.008950894
2-0042,pubchemPCH,BVFJTESUEYBUOL-UHFFFAOYSA-N,c1ccc2c(c1)ccc1c2cc(Cl)cc1,C14H9Cl,r2scan,212.679,9,14,1,-998.988388076775,-998.7931875233,0.0001626275,-998.8416749106,4.747924395405,4.6093753733,0.0010846901,4.2859749293,0.1833488161,-5.6396,-2.0736,3.566,1.97772,181.25182,-0.60195 0.49301 0.00004,0.037405,0.01162,0.008866
2-0042,pubchemPCH,BVFJTESUEYBUOL-UHFFFAOYSA-N,c1ccc2c(c1)ccc1c2cc(Cl)cc1,C14H9Cl,d4tzvp,212.679,9,14,1,-999.600673164227,-999.4054726107,0.0001626275,-999.453959998,4.683748519625,4.5451994973,0.0010846901,4.2217990542,0.1833488161,-8.3138,0.4553,8.7691,2.02171,177.67347,-0.60975 0.51073 0.00004,0.037405,0.01162,0.008866
2-0043,pubchemPCH,BWUWUVGAWQKEKH-UHFFFAOYSA-N,Clc1c(Cl)c2ccc3c4c2c(c1Cl)c(Cl)c(c4c(c(c3)Cl)Cl)Cl,C16H3Cl7,xtb2,443.371,3,16,7,-67.705159313195,-67.550844622527,0.000232601904,-67.62019488014,6.45429313482,6.361352182032,0.001151359166,6.018074445868,0.133372068984,-10.7107,-8.7809,1.929855510935,3.0,252.22791,0.114 1.174 -0.043,0.008535233,0.003747647,0.002638656
2-0043,pubchemPCH,BWUWUVGAWQKEKH-UHFFFAOYSA-N,Clc1c(Cl)c2ccc3c4c2c(c1Cl)c(Cl)c(c4c(c(c3)Cl)Cl)Cl,C16H3Cl7,r2scan,443.371,3,16,7,-3832.64642325566,-3832.4891000481,0.0002241824,-3832.5559400216,5.041197783146,4.9452470677,0.0012380184,4.5761316959,0.1369649575,-5.854,-3.3975,2.4565,2.86519,310.39437,0.08230 1.12116 -0.08290,0.008294,0.003727,0.002681
2-0043,pubchemPCH,BWUWUVGAWQKEKH-UHFFFAOYSA-N,Clc1c(Cl)c2ccc3c4c2c(c1Cl)c(Cl)c(c4c(c(c3)Cl)Cl)Cl,C16H3Cl7,d4tzvp,443.371,3,16,7,-3833.545601866434,-3833.3882786588,0.0002241824,-3833.4551186323,4.999399532826,4.9034488176,0.0012380184,4.5343334461,0.1369649575,-8.3633,-1.1571,7.2062,3.06367,294.93529,0.09481 1.19790 -0.09405,0.008294,0.003727,0.002681
2-0044,pubchemPCH,BYONIANIPNKLPN-UHFFFAOYSA-N,c1ccc2c(c1)c1c3ccccc3c3c(c1cc2)ccc1c3c(Cl)c(Cl)cc1,C26H14Cl2,xtb2,397.304,14,26,2,-71.945640704014,-71.61859172739,0.00023396066,-71.688347098151,10.846126083498,10.618219298834,0.00184613786,10.067793294553,0.305152440483,-10.1559,-7.6807,2.47520020308,2.963,292.256305,0.592 0.797 -0.611,0.01084772,0.003501736,0.002967028
2-0044,pubchemPCH,BYONIANIPNKLPN-UHFFFAOYSA-N,c1ccc2c(c1)c1c3ccccc3c3c(c1cc2)ccc1c3c(Cl)c(Cl)cc1,C26H14Cl2,r2scan,397.304,14,26,2,-1919.372878674163,-1919.0380570952,0.0002249943,-1919.1051391587,8.545470228699,8.3097888296,0.0019816209,7.7189684011,0.3137860978,-5.3885,-2.5938,2.7947,2.51706,364.57905,0.41640 0.72707 -0.52784,0.010869,0.0034,0.002896
2-0044,pubchemPCH,BYONIANIPNKLPN-UHFFFAOYSA-N,c1ccc2c(c1)c1c3ccccc3c3c(c1cc2)ccc1c3c(Cl)c(Cl)cc1,C26H14Cl2,d4tzvp,397.304,14,26,2,-1920.499008141929,-1920.1641865629,0.0002249943,-1920.2312686264,8.430898877651,8.1952174783,0.0019816209,7.6043970512,0.3137860978,-7.9083,-0.2205,7.6878,2.607,347.55418,0.37885 0.78131 -0.54589,0.010869,0.0034,0.002896
2-0045,pubchemPCH,CBFXAOAUBYXOID-UHFFFAOYSA-N,c1c(Cl)cc2c3c1c(Cl)cc1c3c(cc2Cl)c(cc1Cl)Cl,C16H5Cl5,xtb2,374.481,5,16,5,-59.634596123861,-59.463468003321,0.000211063135,-59.526396476979,6.561814687536,6.452060304876,0.001139089143,6.112440876079,0.152767898854,-10.6855,-8.5842,2.101335683652,1.028,226.658729,0.404 -0.000 0.000,0.008158415,0.00567929,0.003348388
2-0045,pubchemPCH,CBFXAOAUBYXOID-UHFFFAOYSA-N,c1c(Cl)cc2c3c1c(Cl)cc1c3c(cc2Cl)c(cc1Cl)Cl,C16H5Cl5,r2scan,374.481,5,16,5,-2913.533497395787,-2913.3588835977,0.0002083558,-2913.4210048663,5.161715128809,5.0484738229,0.0012200214,4.6847242776,0.1566056218,-5.8281,-3.2561,2.572,1.01928,278.18321,0.40101 -0.00001 -0.00065,0.008052,0.005621,0.00331
2-0045,pubchemPCH,CBFXAOAUBYXOID-UHFFFAOYSA-N,c1c(Cl)cc2c3c1c(Cl)cc1c3c(cc2Cl)c(cc1Cl)Cl,C16H5Cl5,d4tzvp,374.481,5,16,5,-2914.358042830557,-2914.1834290325,0.0002083558,-2914.2455503011,5.106392421429,4.9931511157,0.0012200214,4.6294015709,0.1566056218,-8.3024,-0.9837,7.3187,1.06436,266.86214,0.41874 -0.00003 -0.00041,0.008052,0.005621,0.00331
2-0046,pubchemPCH,CCBDTWJORYFIGQ-UHFFFAOYSA-N,Clc1c(Cl)c(Cl)c2c(c1)cc1c(c2)ccc(c1)Cl,C14H6Cl4,xtb2,316.014,6,14,4,-51.265643841268,-51.099746942564,0.000198828887,-51.159027775075,5.868497518698,5.759253301114,0.001028012739,5.452751302231,0.149653517629,-10.5431,-8.4503,2.092756340131,1.667,197.054505,-0.649 0.091 -0.000,0.02304643,0.004292845,0.003618778
2-0046,pubchemPCH,CCBDTWJORYFIGQ-UHFFFAOYSA-N,Clc1c(Cl)c(Cl)c2c(c1)cc1c(c2)ccc(c1)Cl,C14H6Cl4,r2scan,316.014,6,14,4,-2377.717217566173,-2377.5477601348,0.0001925854,-2377.6051794855,4.626589076499,4.5137831764,0.0011054676,4.1841878987,0.1537116667,-5.591,-3.1743,2.4167,1.37311,245.12078,-0.53978 0.02155 0.00001,0.022527,0.004266,0.003587
2-0046,pubchemPCH,CCBDTWJORYFIGQ-UHFFFAOYSA-N,Clc1c(Cl)c(Cl)c2c(c1)cc1c(c2)ccc(c1)Cl,C14H6Cl4,d4tzvp,316.014,6,14,4,-2378.433392772385,-2378.263935341,0.0001925854,-2378.3213546917,4.574640241063,4.461834341,0.0011054676,4.1322390639,0.1537116667,-8.159,-0.7969,7.3621,1.46232,234.33546,-0.57407 0.03777 0.00001,0.022527,0.004266,0.003587
2-0047,pubchemPCH,CCWVLLDQBRGVRV-UHFFFAOYSA-N,c1ccc2c(c1)cc1c(c2)c2c(Cl)c(Cl)ccc2cc1,C18H10Cl2,xtb2,297.184,10,18,2,-52.758179196113,-52.527562120174,0.000196556531,-52.586165450008,7.578966602261,7.419165377722,0.001292164865,7.033906422494,0.214276392506,-10.1464,-7.7742,2.372201527855,2.849,212.287481,-0.445 -1.006 0.214,0.01967346,0.006180405,0.004757436
2-0047,pubchemPCH,CCWVLLDQBRGVRV-UHFFFAOYSA-N,c1ccc2c(c1)cc1c(c2)c2c(Cl)c(Cl)ccc2cc1,C18H10Cl2,r2scan,297.184,10,18,2,-1612.160886289333,-1611.9249367118,0.000190172,-1611.9816364794,5.980293284753,5.8151581214,0.001388186,5.401270327,0.2202077336,-5.2964,-2.6111,2.6853,2.54398,262.07188,-0.38100 -0.89632 0.23058,0.019585,0.006055,0.004687
2-0047,pubchemPCH,CCWVLLDQBRGVRV-UHFFFAOYSA-N,c1ccc2c(c1)cc1c(c2)c2c(Cl)c(Cl)ccc2cc1,C18H10Cl2,d4tzvp,297.184,10,18,2,-1612.966899768183,-1612.7309501907,0.000190172,-1612.7876499583,5.901396275529,5.7362611121,0.001388186,5.3223733187,0.2202077336,-7.8294,-0.1944,7.635,2.60313,251.87824,-0.35673 -0.92995 0.23826,0.019585,0.006055,0.004687
2-0048,pubchemPCH,CDBUIEMPGLUXJU-UHFFFAOYSA-N,Clc1ccc2c(c1Cl)cc1c(c2)c(Cl)ccc1,C14H7Cl3,xtb2,281.569,7,14,3,-47.218494280768,-47.044225826194,0.000187488003,-47.100125374256,5.910390329223,5.792774555769,0.001022449227,5.487931318098,0.159407418896,-10.3547,-8.2511,2.103534207366,1.667,184.516533,-0.655 0.038 0.000,0.02685922,0.006236278,0.005061158
2-0048,pubchemPCH,CDBUIEMPGLUXJU-UHFFFAOYSA-N,Clc1ccc2c(c1Cl)cc1c(c2)c(Cl)ccc1,C14H7Cl3,r2scan,281.569,7,14,3,-1918.140336083717,-1917.962130676,0.000182114,-1918.0164279535,4.666429196811,4.5448753204,0.0010990272,4.2172002352,0.163826554,-5.4718,-3.0317,2.4401,1.5089,219.84304,-0.59286 0.03026 0.00001,0.026463,0.006166,0.005001
2-0048,pubchemPCH,CDBUIEMPGLUXJU-UHFFFAOYSA-N,Clc1ccc2c(c1Cl)cc1c(c2)c(Cl)ccc1,C14H7Cl3,d4tzvp,281.569,7,14,3,-1918.820793634751,-1918.6425882271,0.000182114,-1918.6968855046,4.609317065669,4.4877631893,0.0010990272,4.1600881048,0.163826554,-8.0313,-0.6402,7.3911,1.59505,213.2643,-0.62672 0.03192 0.00001,0.026463,0.006166,0.005001
2-0049,pubchemPCH,CEDZMDSZTVUPSP-UHFFFAOYSA-N,c1cc(Cl)c2c(c1)cc(cc2)Cl,C10H6Cl2,xtb2,197.064,6,10,2,-33.57910868334,-33.444495708291,0.000156158746,-33.491054438493,4.320198116152,4.228074651943,0.000741185526,4.007090187063,0.12393578322,-10.654,-7.6683,2.985725987824,1.597,132.157232,0.388 -0.494 -0.000,0.04983377,0.0142927,0.0111071
2-0049,pubchemPCH,CEDZMDSZTVUPSP-UHFFFAOYSA-N,c1cc(Cl)c2c(c1)cc(cc2)Cl,C10H6Cl2,r2scan,197.064,6,10,2,-1304.957538375093,-1304.81988824,0.000153049,-1304.8655197876,3.423760811397,3.3285993248,0.0007970518,3.0909582404,0.1273074347,-5.8824,-2.4027,3.4797,1.51583,142.64742,0.38166 -0.45824 -0.00004,0.049367,0.014087,0.01096
2-0049,pubchemPCH,CEDZMDSZTVUPSP-UHFFFAOYSA-N,c1cc(Cl)c2c(c1)cc(cc2)Cl,C10H6Cl2,d4tzvp,197.064,6,10,2,-1305.444905829929,-1305.3072556948,0.000153049,-1305.3528872424,3.382008108899,3.2868466222,0.0007970518,3.0492055384,0.1273074347,-8.6494,0.1647,8.8141,1.5866,140.47849,0.40183 -0.47767 -0.00004,0.049367,0.014087,0.01096
2-0050,pubchemPCH,CEOCDNVZRAIOQZ-UHFFFAOYSA-N,c1c(Cl)c(Cl)c(c(c1Cl)Cl)Cl,C6HCl5,xtb2,250.339,1,6,5,-36.115594491793,-36.053982294033,0.000166790569,-36.103710902248,2.549707824862,2.516421967662,0.000485578329,2.371646788802,0.049705738059,-11.3298,-7.8135,3.516284998962,0.831,130.191286,-0.000 -0.327 -0.000,0.02353287,0.01543082,0.009319739
2-0050,pubchemPCH,CEOCDNVZRAIOQZ-UHFFFAOYSA-N,c1c(Cl)c(Cl)c(c(c1Cl)Cl)Cl,C6HCl5,r2scan,250.339,1,6,5,-2530.073135024686,-2530.0098336103,0.0001611092,-2530.0578683076,2.012600373128,1.9776247243,0.0005255984,1.8209174575,0.0519280867,-6.6265,-2.2383,4.3882,0.79065,133.25825,-0.00002 -0.31106 -0.00000,0.022994,0.015293,0.009184
2-0050,pubchemPCH,CEOCDNVZRAIOQZ-UHFFFAOYSA-N,c1c(Cl)c(Cl)c(c(c1Cl)Cl)Cl,C6HCl5,d4tzvp,250.339,1,6,5,-2530.511620881951,-2530.4483194676,0.0001611092,-2530.4963541649,2.008198160013,1.9732225114,0.0005255984,1.8165152447,0.0519280867,-9.6193,0.4404,10.0597,0.86874,129.1739,-0.00002 -0.34178 -0.00000,0.022994,0.015293,0.009184
2-0051,pubchemPCH,CFEUGIGSIREATC-UHFFFAOYSA-N,Clc1cc(Cl)c2c(c1)ccc(c2)Cl,C10H5Cl3,xtb2,231.509,5,10,3,-37.628951726455,-37.502650771684,0.000167350383,-37.552546288487,4.280998788242,4.197187344311,0.000746898285,3.974499620371,0.114286211622,-10.7922,-7.9552,2.83705063445,1.546,144.542948,0.013 -0.608 -0.000,0.03233437,0.01047063,0.007909383
2-0051,pubchemPCH,CFEUGIGSIREATC-UHFFFAOYSA-N,Clc1cc(Cl)c2c(c1)ccc(c2)Cl,C10H5Cl3,r2scan,231.509,5,10,3,-1764.538356143059,-1764.4091887924,0.0001637699,-1764.4580167828,3.387856976595,3.3011782744,0.0008032427,3.0616913671,0.1175180948,-5.9939,-2.6348,3.3591,1.52148,160.14661,-0.00251 -0.59858 -0.00005,0.031797,0.010357,0.007813
2-0051,pubchemPCH,CFEUGIGSIREATC-UHFFFAOYSA-N,Clc1cc(Cl)c2c(c1)ccc(c2)Cl,C10H5Cl3,d4tzvp,231.509,5,10,3,-1765.060928331727,-1764.9317609810005,0.0001637699,-1764.9805889714005,3.350754648457,3.2640759462,0.0008032427,3.0245890394,0.1175180948,-8.761,-0.0756,8.6854,1.56054,156.0663,-0.01742 -0.61370 -0.00005,0.031797,0.010357,0.007813
2-0052,pubchemPCH,CGGLATBNKZVLQD-UHFFFAOYSA-N,c1ccc2c3c1cccc3c1c3c2c(Cl)c(Cl)cc3ccc1,C20H10Cl2,xtb2,321.206,10,20,2,-57.06289733596,-56.819039343713,0.000200964746,-56.878956982683,8.297091999378,8.128770915291,0.001394162906,7.713101243799,0.226751359571,-9.9716,-8.1364,1.835203496552,3.18,229.66468,-0.786 -0.935 -0.271,0.01294551,0.007306213,0.00478724
2-0052,pubchemPCH,CGGLATBNKZVLQD-UHFFFAOYSA-N,c1ccc2c3c1cccc3c1c3c2c(Cl)c(Cl)cc3ccc1,C20H10Cl2,r2scan,321.206,10,20,2,-1688.37679883788,-1688.1275126205,0.0001946217,-1688.1855390933,6.531773658764,6.3580228165,0.0014971487,5.9116478075,0.2327625191,-5.0724,-3.0005,2.0719,2.81046,280.66498,-0.70148 -0.80744 -0.28026,0.012861,0.007182,0.004732
2-0052,pubchemPCH,CGGLATBNKZVLQD-UHFFFAOYSA-N,c1ccc2c3c1cccc3c1c3c2c(Cl)c(Cl)cc3ccc1,C20H10Cl2,d4tzvp,321.206,10,20,2,-1689.256117639449,-1689.006831422,0.0001946217,-1689.0648578947998,6.444992231229,6.2712413888,0.0014971487,5.8248663808,0.2327625191,-7.4852,-0.7187,6.7665,2.89891,270.04274,-0.69329 -0.85697 -0.29271,0.012861,0.007182,0.004732
2-0053,pubchemPCH,CGYGETOMCSJHJU-UHFFFAOYSA-N,c1ccc2c(c1)cc(cc2)Cl,C10H7Cl,xtb2,162.619,7,10,1,-29.527431548416,-29.384663344693,0.00014461033,-29.427778914585,4.357563352253,4.25728465937,0.000735829546,4.037897079841,0.133378241048,-10.5146,-7.3744,3.140259294755,2.056,119.941904,0.777 0.225 0.000,0.0923525,0.01945592,0.01607037
2-0053,pubchemPCH,CGYGETOMCSJHJU-UHFFFAOYSA-N,c1ccc2c(c1)cc(cc2)Cl,C10H7Cl,r2scan,162.619,7,10,1,-845.37590715417,-845.2299061152,0.0001423616,-845.2723512316,3.458851193242,3.3553388028,0.0007908274,3.1195535529,0.1369077281,-5.7694,-2.143,3.6264,1.97125,128.47464,0.73928 0.23435 0.00001,0.091344,0.019255,0.015903
2-0053,pubchemPCH,CGYGETOMCSJHJU-UHFFFAOYSA-N,c1ccc2c(c1)cc(cc2)Cl,C10H7Cl,d4tzvp,162.619,7,10,1,-845.827970159637,-845.6819691206,0.0001423616,-845.724414237,3.412348400847,3.3088360102,0.0007908274,3.073050761,0.1369077281,-8.5382,0.4513,8.9895,1.99925,127.48309,0.75132 0.23276 0.00001,0.091344,0.019255,0.015903
2-0054,pubchemPCH,CHADMNIGNFLQOI-UHFFFAOYSA-N,Clc1ccc2c(c1Cl)cc(c(c2Cl)Cl)Cl,C10H3Cl5,xtb2,300.399,3,10,5,-45.719290218332,-45.609506675094,0.000189064179,-45.665876159966,4.193252538069,4.125958505671,0.000758993281,3.899664658478,0.095077411629,-10.9796,-8.3292,2.650336259847,1.294,169.747336,0.313 -0.401 0.000,0.01958346,0.007424687,0.0053836
2-0054,pubchemPCH,CHADMNIGNFLQOI-UHFFFAOYSA-N,Clc1ccc2c(c1Cl)cc(c(c2Cl)Cl)Cl,C10H3Cl5,r2scan,300.399,3,10,5,-2683.688134144316,-2683.5758176545,0.0001827405,-2683.630301748,3.304191772316,3.2343639309,0.0008180957,2.9904485953,0.0981098754,-6.163,-2.9107,3.2523,1.30079,189.21767,0.28138 -0.42746 0.00001,0.019173,0.007366,0.005321
2-0054,pubchemPCH,CHADMNIGNFLQOI-UHFFFAOYSA-N,Clc1ccc2c(c1Cl)cc(c(c2Cl)Cl)Cl,C10H3Cl5,d4tzvp,300.399,3,10,5,-2684.284495859394,-2684.1721793696,0.0001827405,-2684.2266634631,3.279770251644,3.2099424104,0.0008180957,2.9660270751,0.0981098754,-8.9316,-0.4167,8.5149,1.37886,182.5635,0.31497 -0.44167 0.00001,0.019173,0.007366,0.005321
2-0055,pubchemPCH,CJEKNGCYNZRFGN-UHFFFAOYSA-N,c1c(Cl)c(Cl)cc2c1c(Cl)c1c(c2Cl)cccc1,C14H6Cl4,xtb2,316.014,6,14,4,-51.266095955339,-51.100003432181,0.000196179287,-51.15849428668,5.868949632769,5.759509790731,0.001030662339,5.452217813836,0.14982271783,-10.4305,-8.4806,1.949858651394,3.043,197.012443,-1.197 -0.000 0.000,0.01565952,0.006618962,0.004652461
2-0055,pubchemPCH,CJEKNGCYNZRFGN-UHFFFAOYSA-N,c1c(Cl)c(Cl)cc2c1c(Cl)c1c(c2Cl)cccc1,C14H6Cl4,r2scan,316.014,6,14,4,-2377.716991954684,-2377.5472874327,0.0001906031,-2377.6041157434,4.62636346501,4.5133104743,0.0011074499,4.1831241566,0.1538698778,-5.5283,-3.2696,2.2587,2.90498,238.12723,-1.14288 0.00001 0.00003,0.015315,0.00658,0.004602
2-0055,pubchemPCH,CJEKNGCYNZRFGN-UHFFFAOYSA-N,c1c(Cl)c(Cl)cc2c1c(Cl)c1c(c2Cl)cccc1,C14H6Cl4,d4tzvp,316.014,6,14,4,-2378.433577964183,-2378.2638734422003,0.0001906031,-2378.3207017529003,4.574825432861,4.4617724422,0.0011074499,4.1315861251,0.1538698778,-8.0783,-0.9335,7.1448,3.06841,229.9103,-1.20718 -0.00001 0.00002,0.015315,0.00658,0.004602
2-0056,pubchemPCH,CJRUXWSXMDPLDQ-UHFFFAOYSA-N,Clc1ccc2c(c1)cc(cc2Cl)Cl,C10H5Cl3,xtb2,231.509,5,10,3,-37.629142092906,-37.502827700527,0.000167858293,-37.552874650493,4.281189154693,4.197364273154,0.000746390375,3.974827982377,0.11430405137,-10.8838,-7.956,2.927786237005,0.347,144.540446,0.130 0.042 -0.000,0.02629559,0.01096148,0.007736482
2-0056,pubchemPCH,CJRUXWSXMDPLDQ-UHFFFAOYSA-N,Clc1ccc2c(c1)cc(cc2Cl)Cl,C10H5Cl3,r2scan,231.509,5,10,3,-1764.5385764849,-1764.4094325418,0.0001640228,-1764.4583359472,3.388077318436,3.3014220238,0.0008029898,3.0620105315,0.117488854,-6.0727,-2.6312,3.4415,0.35567,160.41848,0.11042 0.08594 -0.00000,0.025893,0.010848,0.007645
2-0056,pubchemPCH,CJRUXWSXMDPLDQ-UHFFFAOYSA-N,Clc1ccc2c(c1)cc(cc2Cl)Cl,C10H5Cl3,d4tzvp,231.509,5,10,3,-1765.061112382821,-1764.9319684397,0.0001640228,-1764.9808718451002,3.350938699551,3.2642834049,0.0008029898,3.0248719131,0.117488854,-8.8429,-0.076,8.7669,0.3234,156.19011,0.10283 0.07493 -0.00000,0.025893,0.010848,0.007645
2-0057,pubchemPCH,CJTCWSDOKNBZKP-UHFFFAOYSA-N,c1c2c(cc3c1c1c3cc(c(c1)Cl)Cl)c1c2cc(c(c1)Cl)Cl,C18H6Cl4,xtb2,364.058,6,18,4,-59.708760031476,-59.518598497782,0.000213916153,-59.582377598725,7.138428223446,7.014361484392,0.001225737985,6.648907703141,0.171251520355,-10.1839,-8.4933,1.690633265171,0.001,225.134632,0.000 0.000 -0.000,0.02784326,0.002039668,0.00190045
2-0057,pubchemPCH,CJTCWSDOKNBZKP-UHFFFAOYSA-N,c1c2c(cc3c1c1c3cc(c(c1)Cl)Cl)c1c2cc(c(c1)Cl)Cl,C18H6Cl4,r2scan,364.058,6,18,4,-2529.96876243742,-2529.7757681811,0.0002114126,-2529.8388008364,5.549269598674,5.4223687955,0.0013134652,5.0307589828,0.1743156445,-5.0898,-3.2361,1.8537,0.00011,333.22219,0.00000 0.00000 -0.00004,0.027112,0.002017,0.001877
2-0057,pubchemPCH,CJTCWSDOKNBZKP-UHFFFAOYSA-N,c1c2c(cc3c1c1c3cc(c(c1)Cl)Cl)c1c2cc(c(c1)Cl)Cl,C18H6Cl4,d4tzvp,364.058,6,18,4,-2530.833406681928,-2530.6404124256,0.0002114126,-2530.7034450809,5.483410319474,5.3565095164,0.0013134652,4.9648997043,0.1743156445,-7.6241,-0.6637,6.9604,0.00017,301.056,-0.00000 0.00005 -0.00005,0.027112,0.002017,0.001877
2-0058,pubchemPCH,CJWHZQNUDAJJSB-UHFFFAOYSA-N,c1ccc2c(c1)cc(c1c2cccc1)Cl,C14H9Cl,xtb2,212.679,9,14,1,-39.124236613175,-38.933137331322,0.00016653865,-38.982790829853,5.99421740368,5.859770802947,0.001009589788,5.558761607067,0.178859038701,-10.3668,-7.3541,3.012781616119,1.949,159.934043,-0.383 -0.665 -0.000,0.02739615,0.01620229,0.01018111