id,subset,key,smiles,formula,level,mwt,nH,nC,nCl,E,H,S,G,dE,dH,dS,dG,zpe,homo,lumo,gap,Mu,alpha,tMu,rotA,rotB,rotC
2-0325,pubchemPCH,RPCXDZFGLWEAFU-UHFFFAOYSA-N,Clc1c(Cl)c2c(Cl)c(Cl)c3c4c2c(c1Cl)c1c(Cl)c(Cl)cc2c1c4c(c(c3Cl)Cl)cc2,C22H3Cl9,xtb2,586.343,3,22,9,-89.696865256145,-89.497981731564,0.000275846447,-89.580225349688,8.721170579658,8.602545019997,0.001544018233,8.142195982632,0.171619442201,-10.78,-8.8673,1.91272073893,3.221,334.566966,0.631 1.089 0.148,0.003577441,0.002837911,0.001701573
2-0325,pubchemPCH,RPCXDZFGLWEAFU-UHFFFAOYSA-N,Clc1c(Cl)c2c(Cl)c(Cl)c3c4c2c(c1Cl)c1c(Cl)c(Cl)cc2c1c4c(c(c3Cl)Cl)cc2,C22H3Cl9,r2scan,586.343,3,22,9,-4981.61798781912,-4981.4147118981,0.0002630565,-4981.4931421928,6.791479246092,6.6684596609,0.0016605089,6.1733786941,0.1770105745,-5.8629,-3.5013,2.3616,2.98961,422.87265,0.63615 0.97785 0.15010,0.003502,0.00281,0.001734
2-0325,pubchemPCH,RPCXDZFGLWEAFU-UHFFFAOYSA-N,Clc1c(Cl)c2c(Cl)c(Cl)c3c4c2c(c1Cl)c1c(Cl)c(Cl)cc2c1c4c(c(c3Cl)Cl)cc2,C22H3Cl9,d4tzvp,586.343,3,22,9,-4982.8233618799,-4982.620085958901,0.0002630565,-4982.698516253601,6.735682820435,6.6126632357,0.0016605089,6.1175822692,0.1770105745,-8.3532,-1.2944,7.0588,3.21392,396.75863,0.64647 1.07567 0.15420,0.003502,0.00281,0.001734
2-0326,pubchemPCH,RPKZUUXOSANKSY-UHFFFAOYSA-N,c1ccc2c(c1)cc1c(c2)c(Cl)cc(c1Cl)Cl,C14H7Cl3,xtb2,281.569,7,14,3,-47.215843994845,-47.041621724559,0.000188204993,-47.097735043191,5.9077400433,5.790170454134,0.001021732237,5.485540987033,0.1593080666,-10.3516,-8.2516,2.099987567923,2.855,184.689496,-1.116 -0.127 -0.000,0.01794115,0.0081666,0.005612057
2-0326,pubchemPCH,RPKZUUXOSANKSY-UHFFFAOYSA-N,c1ccc2c(c1)cc1c(c2)c(Cl)cc(c1Cl)Cl,C14H7Cl3,r2scan,281.569,7,14,3,-1918.138400024971,-1917.9601997628,0.0001824592,-1918.0145999642,4.664493138065,4.5429444072,0.001098682,4.2153722459,0.1637701392,-5.4626,-3.0259,2.4367,2.58743,220.04186,-1.01100 -0.11876 -0.00002,0.017675,0.008091,0.00555
2-0326,pubchemPCH,RPKZUUXOSANKSY-UHFFFAOYSA-N,c1ccc2c(c1)cc1c(c2)c(Cl)cc(c1Cl)Cl,C14H7Cl3,d4tzvp,281.569,7,14,3,-1918.819402059007,-1918.6412017968,0.0001824592,-1918.6956019982,4.607925489925,4.486376759,0.001098682,4.1588045984,0.1637701392,-8.0211,-0.6392,7.3819,2.57794,213.60274,-1.00634 -0.12613 -0.00001,0.017675,0.008091,0.00555
2-0327,pubchemPCH,RRCAXZRALFQEBZ-UHFFFAOYSA-N,c1ccc2-c3c4c(-c2c1)cc1c2ccc(cc2ccc1c4ccc3)Cl,C24H13Cl,xtb2,336.821,13,24,1,-62.606573944881,-62.306461852102,0.000214134451,-62.370306038764,9.969659965992,9.759247951653,0.001659777367,9.264385328524,0.281147040366,-10.2578,-7.9226,2.335199798422,2.126,257.144903,0.778 0.306 0.000,0.01552384,0.003613483,0.00293119
2-0327,pubchemPCH,RRCAXZRALFQEBZ-UHFFFAOYSA-N,c1ccc2-c3c4c(-c2c1)cc1c2ccc(cc2ccc1c4ccc3)Cl,C24H13Cl,r2scan,336.821,13,24,1,-1382.410955658037,-1382.1049718809,0.0002090003,-1382.1672853345,7.859244361247,7.6429588421,0.0017799869,7.1122556146,0.2873887321,-5.5147,-2.8032,2.7115,1.94066,334.25682,0.71482 0.26828 -0.00006,0.015368,0.003584,0.002906
2-0327,pubchemPCH,RRCAXZRALFQEBZ-UHFFFAOYSA-N,c1ccc2-c3c4c(-c2c1)cc1c2ccc(cc2ccc1c4ccc3)Cl,C24H13Cl,d4tzvp,336.821,13,24,1,-1383.415563739821,-1383.1095799627,0.0002090003,-1383.1718934163002,7.750411408029,7.5341258887,0.0017799869,7.0034226625,0.2873887321,-8.0144,-0.4699,7.5445,2.0396,318.18389,0.75896 0.26052 -0.00007,0.015368,0.003584,0.002906
2-0328,pubchemPCH,RRCVUDIEESOZBU-UHFFFAOYSA-N,Clc1ccc2c(c1)ccc1c2cc(Cl)c(c1)Cl,C14H7Cl3,xtb2,281.569,7,14,3,-47.225665532235,-47.051172283265,0.000188035486,-47.107235063526,5.91756158069,5.79972101284,0.001021901744,5.495041007368,0.159598366778,-10.7754,-7.8042,2.971149610215,1.558,184.517113,-0.369 0.490 0.000,0.03161926,0.005131291,0.004414835
2-0328,pubchemPCH,RRCVUDIEESOZBU-UHFFFAOYSA-N,Clc1ccc2c(c1)ccc1c2cc(Cl)c(c1)Cl,C14H7Cl3,r2scan,281.569,7,14,3,-1918.148745578008,-1917.9706096793,0.0001832062,-1918.0252326195,4.674838691102,4.5533543237,0.001097935,4.2260049012,0.1636469628,-6.0137,-2.4722,3.5415,1.40945,218.89642,-0.31413 0.45695 0.00007,0.03105,0.005093,0.004375
2-0328,pubchemPCH,RRCVUDIEESOZBU-UHFFFAOYSA-N,Clc1ccc2c(c1)ccc1c2cc(Cl)c(c1)Cl,C14H7Cl3,d4tzvp,281.569,7,14,3,-1918.83186147626,-1918.6537255776,0.0001832062,-1918.7083485178,4.620384907178,4.4989005398,0.001097935,4.171551118,0.1636469628,-8.7009,0.0519,8.7528,1.50276,210.54364,-0.33895 0.48441 0.00007,0.03105,0.005093,0.004375
2-0329,pubchemPCH,RTIGQNIDTJHNFQ-UHFFFAOYSA-N,Clc1c(Cl)c(Cl)c2c(c1)cc1c(c2)cccc1,C14H7Cl3,xtb2,281.569,7,14,3,-47.213661201826,-47.039517972933,0.000188115006,-47.095604462007,5.905557250281,5.788066702508,0.001021822224,5.483410405849,0.159227225756,-10.3609,-8.2331,2.127786425769,3.826,184.804973,-1.444 -0.425 0.000,0.02440549,0.006829029,0.005335949
2-0329,pubchemPCH,RTIGQNIDTJHNFQ-UHFFFAOYSA-N,Clc1c(Cl)c(Cl)c2c(c1)cc1c(c2)cccc1,C14H7Cl3,r2scan,281.569,7,14,3,-1918.134946920973,-1917.9569417553,0.0001820836,-1918.011229974,4.661040034067,4.5396863997,0.0010990576,4.2120022557,0.1635947283,-5.4342,-2.9938,2.4404,3.42,223.67157,-1.29409 -0.36837 0.00001,0.023851,0.00679,0.005285
2-0329,pubchemPCH,RTIGQNIDTJHNFQ-UHFFFAOYSA-N,Clc1c(Cl)c(Cl)c2c(c1)cc1c(c2)cccc1,C14H7Cl3,d4tzvp,281.569,7,14,3,-1918.816174475078,-1918.6381693094,0.0001820836,-1918.6924575281,4.604697905996,4.4833442716,0.0010990576,4.1556601283,0.1635947283,-7.9932,-0.6072,7.386,3.55552,216.16443,-1.34408 -0.38749 0.00002,0.023851,0.00679,0.005285
2-0330,pubchemPCH,RTNLUFLDZOAXIC-UHFFFAOYSA-N,Clc1c(Cl)c(Cl)c(c2c1c(Cl)c(c(c2Cl)Cl)Cl)Cl,C10Cl8,xtb2,403.734,0,10,8,-57.834286427603,-57.749645194705,0.000214326798,-57.813546729482,4.041121634265,3.998969912207,0.00078444385,3.765087977936,0.065960870701,-11.0708,-8.8242,2.246583378573,0.0,207.98544,-0.000 -0.000 -0.000,0.009217717,0.005894139,0.003633367
2-0330,pubchemPCH,RTNLUFLDZOAXIC-UHFFFAOYSA-N,Clc1c(Cl)c(Cl)c(c2c1c(Cl)c(c(c2Cl)Cl)Cl)Cl,C10Cl8,r2scan,403.734,0,10,8,-4062.378728147336,-4062.2920250573,0.0002070948,-4062.3537703602,3.144620967032,3.1004065253,0.0008444768,2.848625602,0.0688265512,-6.1461,-3.3756,2.7705,0.00011,236.1905,0.00000 -0.00004 -0.00000,0.009082,0.005754,0.003715
2-0330,pubchemPCH,RTNLUFLDZOAXIC-UHFFFAOYSA-N,Clc1c(Cl)c(Cl)c(c2c1c(Cl)c(c(c2Cl)Cl)Cl)Cl,C10Cl8,d4tzvp,403.734,0,10,8,-4063.084603763915,-4062.9979006739,0.0002070948,-4063.0596459768,3.138050269445,3.0938358281,0.0008444768,2.8420549048,0.0688265512,-8.9168,-0.9778,7.939,4E-05,224.52441,-0.00000 -0.00001 -0.00000,0.009082,0.005754,0.003715
2-0331,pubchemPCH,RWGSODKNBWSNLC-UHFFFAOYSA-N,c1c(Cl)cc2c(c1)c1ccccc1c(c2)Cl,C14H8Cl2,xtb2,247.124,8,14,2,-43.176515208716,-42.99365738968,0.000177824903,-43.046675884613,5.957453628196,5.83124849028,0.001015207931,5.528564245141,0.169291192468,-10.6146,-7.6235,2.991073166245,2.206,172.132134,-0.495 -0.713 -0.000,0.02655318,0.008677241,0.006540039
2-0331,pubchemPCH,RWGSODKNBWSNLC-UHFFFAOYSA-N,c1c(Cl)cc2c(c1)c1ccccc1c(c2)Cl,C14H8Cl2,r2scan,247.124,8,14,2,-1458.569401861759,-1458.3826343828,0.0001732589,-1458.4342915337,4.712216577621,4.58210063,0.0010909705,4.2568276839,0.1735617164,-5.8723,-2.3536,3.5187,2.16148,198.35557,-0.48367 -0.69943 -0.00001,0.026132,0.008606,0.006474
2-0331,pubchemPCH,RWGSODKNBWSNLC-UHFFFAOYSA-N,c1c(Cl)cc2c(c1)c1ccccc1c(c2)Cl,C14H8Cl2,d4tzvp,247.124,8,14,2,-1459.217224646483,-1459.0304571675,0.0001732589,-1459.0821143183998,4.653024039641,4.5229080919,0.0010909705,4.1976351466,0.1735617164,-8.5609,0.1639,8.7248,2.13337,192.92272,-0.47133 -0.69447 -0.00000,0.026132,0.008606,0.006474
2-0332,pubchemPCH,RWUTWLYOIOBEQM-UHFFFAOYSA-N,c1cc2ccc(c3-c4c5c(c1ccc5ccc4)c23)Cl,C18H9Cl,xtb2,260.723,9,18,1,-47.697212916297,-47.480368427651,0.000176164679,-47.532891926564,7.394008221342,7.243258527336,0.001212776271,6.881669281038,0.203097692391,-10.4641,-7.9233,2.540838891182,1.771,194.438234,-0.288 -0.634 -0.000,0.01750042,0.0125888,0.007321869
2-0332,pubchemPCH,RWUTWLYOIOBEQM-UHFFFAOYSA-N,c1cc2ccc(c3-c4c5c(c1ccc5ccc4)c23)Cl,C18H9Cl,r2scan,260.723,9,18,1,-1151.385035686492,-1151.1640327763,0.000175062,-1151.216227525,5.81570765605,5.6607981991,0.0012990804,5.2734772769,0.2072737293,-5.789,-2.8515,2.9375,1.53021,226.66455,-0.22984 -0.55642 -0.00001,0.01732,0.012524,0.007268
2-0332,pubchemPCH,RWUTWLYOIOBEQM-UHFFFAOYSA-N,c1cc2ccc(c3-c4c5c(c1ccc5ccc4)c23)Cl,C18H9Cl,d4tzvp,260.723,9,18,1,-1152.144093480029,-1151.9230905698,0.000175062,-1151.9752853185,5.735925004295,5.5810155472,0.0012990804,5.1936946259,0.2072737293,-8.4266,-0.4778,7.9488,1.58688,221.17841,-0.23120 -0.57993 -0.00001,0.01732,0.012524,0.007268
2-0333,pubchemPCH,SAVQUDSDGHRNQJ-UHFFFAOYSA-N,c1cc2ccc3c(c2c2c1ccc1c2c2ccc(cc2cc1)Cl)ccc(c3)Cl,C26H14Cl2,xtb2,397.304,14,26,2,-71.955432391427,-71.628710856656,0.000231758904,-71.697809773833,10.855917770911,10.6283384281,0.001848339616,10.077255970235,0.304831051705,-10.2422,-7.6667,2.575555375463,4.079,291.973033,0.002 -1.605 -0.000,0.006718418,0.005186587,0.003494922
2-0333,pubchemPCH,SAVQUDSDGHRNQJ-UHFFFAOYSA-N,c1cc2ccc3c(c2c2c1ccc1c2c2ccc(cc2cc1)Cl)ccc(c3)Cl,C26H14Cl2,r2scan,397.304,14,26,2,-1919.386003314087,-1919.0514997515,0.0002248772,-1919.1185469013,8.558594868623,8.3232314859,0.001981738,7.7323761437,0.3134842924,-5.4664,-2.6032,2.8632,3.5992,348.45145,0.00180 -1.41600 -0.00003,0.006226,0.005161,0.003396
2-0333,pubchemPCH,SAVQUDSDGHRNQJ-UHFFFAOYSA-N,c1cc2ccc3c(c2c2c1ccc1c2c2ccc(cc2cc1)Cl)ccc(c3)Cl,C26H14Cl2,d4tzvp,397.304,14,26,2,-1920.50908296341,-1920.1745794008,0.0002248772,-1920.2416265506,8.440973699132,8.2056103162,0.001981738,7.6147549754,0.3134842924,-8.0365,-0.2108,7.8257,3.74788,334.5062,0.00187 -1.47450 -0.00003,0.006226,0.005161,0.003396
2-0334,pubchemPCH,SBPAFMRNDOFNLB-UHFFFAOYSA-N,c1ccc2c(c1)cc1c(c2Cl)ccc2c1cccc2,C18H11Cl,xtb2,262.739,11,18,1,-48.715804145328,-48.476761541851,0.000187067211,-48.532535630745,7.625633922501,7.457407170424,0.001284749789,7.074359019917,0.223917034453,-10.0275,-7.7181,2.309378538007,1.834,199.933138,0.269 0.669 0.000,0.02305339,0.008100551,0.005994271
2-0334,pubchemPCH,SBPAFMRNDOFNLB-UHFFFAOYSA-N,c1ccc2c(c1)cc1c(c2Cl)ccc2c1cccc2,C18H11Cl,r2scan,262.739,11,18,1,-1152.592496653843,-1152.3482123281,0.0001819467,-1152.4024597426,6.028625252031,5.8551553405,0.0013794995,5.4438574587,0.2296062666,-5.2521,-2.6229,2.6292,1.75671,244.24539,0.27124 0.63568 -0.00000,0.022685,0.008039,0.005935
2-0334,pubchemPCH,SBPAFMRNDOFNLB-UHFFFAOYSA-N,c1ccc2c(c1)cc1c(c2Cl)ccc2c1cccc2,C18H11Cl,d4tzvp,262.739,11,18,1,-1153.363206894127,-1153.1189225684,0.0001819467,-1153.1731699829,5.944979363713,5.771509452,0.0013794995,5.3602115713,0.2296062666,-7.7982,-0.2303,7.5679,1.76952,236.9478,0.26509 0.64373 -0.00001,0.022685,0.008039,0.005935
2-0335,pubchemPCH,SCQIKQJOYFRONC-UHFFFAOYSA-N,c1ccc2c3c1cccc3c1c3c2cccc3c(cc1)Cl,C20H11Cl,xtb2,286.761,11,20,1,-53.02058788705,-52.768290099121,0.000195425071,-52.826556084059,8.343824921493,8.167064041724,0.001382798185,7.754782761861,0.236282590607,-9.8165,-7.9815,1.835023730132,2.124,217.280832,-0.832 -0.078 0.002,0.02045503,0.007096096,0.005269249
2-0335,pubchemPCH,SCQIKQJOYFRONC-UHFFFAOYSA-N,c1ccc2c3c1cccc3c1c3c2cccc3c(cc1)Cl,C20H11Cl,r2scan,286.761,11,20,1,-1228.809750677687,-1228.5527426784,0.0001922029,-1228.6100479843,6.581447101339,6.3999744772,0.0014826557,5.957920567,0.2411110954,-4.9313,-2.9109,2.0204,1.95532,269.82725,-0.76521 -0.07892 0.00214,0.020294,0.00701,0.005213
2-0335,pubchemPCH,SCQIKQJOYFRONC-UHFFFAOYSA-N,c1ccc2c3c1cccc3c1c3c2cccc3c(cc1)Cl,C20H11Cl,d4tzvp,286.761,11,20,1,-1229.652673022699,-1229.3956650233995,0.0001922029,-1229.4529703293,6.488823576719,6.3073509524,0.0014826557,5.8652970433,0.2411110954,-7.307,-0.6489,6.6581,1.98952,259.74562,-0.77967 -0.06900 0.00210,0.020294,0.00701,0.005213
2-0336,pubchemPCH,SDFHLTLRTKHJHZ-UHFFFAOYSA-N,c1cc2ccc3c4c2c(c1)c(Cl)cc4ccc3Cl,C16H8Cl2,xtb2,271.146,8,16,2,-47.483983131799,-47.288069047826,0.000181288145,-47.34212010837,6.678328808549,6.543788462456,0.001118150945,6.210411757528,0.181672800231,-10.2419,-7.9684,2.273493776377,0.737,189.517898,0.142 0.253 -0.000,0.02138397,0.008753911,0.006211232
2-0336,pubchemPCH,SDFHLTLRTKHJHZ-UHFFFAOYSA-N,c1cc2ccc3c4c2c(c1)c(Cl)cc4ccc3Cl,C16H8Cl2,r2scan,271.146,8,16,2,-1534.79176402272,-1534.5917700367,0.0001771533,-1534.6445882809,5.270146564046,5.1315250703,0.0012004885,4.7735992977,0.1860821145,-5.4304,-2.7101,2.7203,0.70622,224.33263,0.15013 0.23379 -0.00000,0.021135,0.008656,0.006141
2-0336,pubchemPCH,SDFHLTLRTKHJHZ-UHFFFAOYSA-N,c1cc2ccc3c4c2c(c1)c(Cl)cc4ccc3Cl,C16H8Cl2,d4tzvp,271.146,8,16,2,-1535.509868478082,-1535.3098744921,0.0001771533,-1535.3626927363002,5.200045955674,5.0614244619,0.0012004885,4.7034986901,0.1860821145,-7.8911,-0.3937,7.4974,0.67316,218.84586,0.15639 0.21373 0.00000,0.021135,0.008656,0.006141
2-0337,pubchemPCH,SDPVOBIUXFTSTI-UHFFFAOYSA-N,c1c2c(cc3c1cc1c(c3)cc(c(c1)Cl)Cl)cc1c(c2)cc2c(c1)cc(c(c2)Cl)Cl,C26H12Cl4,xtb2,466.194,12,26,4,-80.032712614898,-79.723812610879,0.000253887784,-79.799509253612,10.755113252332,10.545355440273,0.001860019528,9.990790616642,0.283988316728,-9.7508,-8.8286,0.922240279401,0.0,316.819738,-0.000 -0.000 0.000,0.02149027,0.0009526475,0.0009122099
2-0337,pubchemPCH,SDPVOBIUXFTSTI-UHFFFAOYSA-N,c1c2c(cc3c1cc1c(c3)cc(c(c1)Cl)Cl)cc1c(c2)cc2c(c1)cc(c(c2)Cl)Cl,C26H12Cl4,r2scan,466.194,12,26,4,-2838.522907404969,-2838.2075756781,0.0002450598,-2838.2806402583,8.462055753969,8.2458642069,0.001995379,7.6509417637,0.2911086792,-4.6865,-3.7951,0.8914,0.00021,535.1034,0.00000 0.00008 -0.00000,0.020892,0.000949,0.000907
2-0337,pubchemPCH,SDPVOBIUXFTSTI-UHFFFAOYSA-N,c1c2c(cc3c1cc1c(c3)cc(c(c1)Cl)Cl)cc1c(c2)cc2c(c1)cc(c(c2)Cl)Cl,C26H12Cl4,d4tzvp,466.194,12,26,4,-2839.70217396028,-2839.3868422334003,0.0002450598,-2839.4599068136004,8.339512771522,8.1233212244,0.001995379,7.5283987824,0.2911086792,-6.8683,-1.7432,5.1251,8E-05,489.82599,-0.00000 0.00003 0.00000,0.020892,0.000949,0.000907
2-0338,pubchemPCH,SDUAXSKHZIJCSC-UHFFFAOYSA-N,c1ccc2c(c1Cl)c1ccccc1cc2,C14H9Cl,xtb2,212.679,9,14,1,-39.11697835482,-38.925935699589,0.000165525475,-38.975287120089,5.986959145325,5.852569171214,0.001010602963,5.551257897303,0.178866849604,-10.3588,-7.3028,3.055961922617,1.692,159.928556,0.032 0.653 -0.124,0.02900452,0.01732487,0.0109853
2-0338,pubchemPCH,SDUAXSKHZIJCSC-UHFFFAOYSA-N,c1ccc2c(c1Cl)c1ccccc1cc2,C14H9Cl,r2scan,212.679,9,14,1,-998.976507174785,-998.7810634645,0.0001615369,-998.8292256861,4.736043493415,4.5972513145,0.0010857807,4.2735257048,0.1836763112,-5.61,-2.0903,3.5197,1.56931,178.15455,0.04201 0.60026 -0.13823,0.028623,0.017019,0.010803
2-0338,pubchemPCH,SDUAXSKHZIJCSC-UHFFFAOYSA-N,c1ccc2c(c1Cl)c1ccccc1cc2,C14H9Cl,d4tzvp,212.679,9,14,1,-999.589259247803,-999.3938155375,0.0001615369,-999.4419777591,4.672334603201,4.5335424241,0.0010857807,4.2098168153,0.1836763112,-8.2776,0.4284,8.706,1.6121,175.32954,0.06897 0.61490 -0.13928,0.028623,0.017019,0.010803
2-0339,pubchemPCH,SEBMXBSAQVTTBK-UHFFFAOYSA-N,c1ccc2c(c1)ccc1c2c2ccccc2c(c1)Cl,C18H11Cl,xtb2,262.739,11,18,1,-48.713220766112,-48.474016440452,0.000185201005,-48.529234120009,7.623050543285,7.454662069025,0.001286615995,7.071057509181,0.224290253846,-10.1866,-7.4489,2.73764411536,2.058,199.888941,0.693 -0.388 0.159,0.02178185,0.00871479,0.006394271
2-0339,pubchemPCH,SEBMXBSAQVTTBK-UHFFFAOYSA-N,c1ccc2c(c1)ccc1c2c2ccccc2c(c1)Cl,C18H11Cl,r2scan,262.739,11,18,1,-1152.589157309111,-1152.3442078502,0.0001797234,-1152.397792378,6.025285907299,5.8511508626,0.0013817228,5.4391900941,0.2305994652,-5.4553,-2.357,3.0983,1.86499,235.32393,0.62596 -0.36138 0.12623,0.021581,0.008589,0.006289
2-0339,pubchemPCH,SEBMXBSAQVTTBK-UHFFFAOYSA-N,c1ccc2c(c1)ccc1c2c2ccccc2c(c1)Cl,C18H11Cl,d4tzvp,262.739,11,18,1,-1153.360149774097,-1153.1152003152,0.0001797234,-1153.168784843,5.941922243683,5.7677871988,0.0013817228,5.3558264314,0.2305994652,-8.0475,0.0734,8.1209,1.88878,228.56846,0.64319 -0.34939 0.12810,0.021581,0.008589,0.006289
2-0340,pubchemPCH,SEIHKFJDMUPTKW-UHFFFAOYSA-N,c1c2c(cc3c(c2)cccc3)cc2c1ccc1c2cc2c(c1)cccc2Cl,C26H15Cl,xtb2,362.859,15,26,1,-67.900536891982,-67.565909649286,0.000227014776,-67.633594104651,10.890064642491,10.654579591755,0.001836179348,10.107122717739,0.313797636265,-9.7524,-7.8927,1.85964937283,1.649,279.868241,0.014 -0.649 0.000,0.01346442,0.002802069,0.002319384
2-0340,pubchemPCH,SEIHKFJDMUPTKW-UHFFFAOYSA-N,c1c2c(cc3c(c2)cccc3)cc2c1ccc1c2cc2c(c1)cccc2Cl,C26H15Cl,r2scan,362.859,15,26,1,-1459.806911500472,-1459.4651734804,0.000220483,-1459.5309104879,8.596224657776,8.3536268176,0.0019692204,7.7665035988,0.3214632021,-4.9256,-2.8668,2.0588,1.4591,405.96435,0.01751 -0.57377 0.00002,0.013297,0.00278,0.002299
2-0340,pubchemPCH,SEIHKFJDMUPTKW-UHFFFAOYSA-N,c1c2c(cc3c(c2)cccc3)cc2c1ccc1c2cc2c(c1)cccc2Cl,C26H15Cl,d4tzvp,362.859,15,26,1,-1460.890286032647,-1460.5485480125,0.000220483,-1460.61428502,8.469452730609,8.2268548901,0.0019692204,7.6397316728,0.3214632021,-7.3184,-0.5499,6.7685,1.49196,376.91026,0.08460 -0.58084 0.00003,0.013297,0.00278,0.002299
2-0341,pubchemPCH,SEIYBDOWAZEQGG-UHFFFAOYSA-N,Clc1cc(Cl)c2-c3c(-c2c1Cl)c(Cl)c(c(c3Cl)Cl)Cl,C12HCl7,xtb2,393.311,1,12,7,-58.03090154572,-57.925291055691,0.000222223238,-57.991546913959,4.740186380677,4.681786458248,0.00086604927,4.423573867729,0.086664667469,-11.0923,-8.8083,2.284048139452,0.992,208.80203,-0.351 0.170 0.000,0.009559426,0.004923305,0.003249661
2-0341,pubchemPCH,SEIYBDOWAZEQGG-UHFFFAOYSA-N,Clc1cc(Cl)c2-c3c(-c2c1Cl)c(Cl)c(c(c3Cl)Cl)Cl,C12HCl7,r2scan,393.311,1,12,7,-3678.965887966602,-3678.8587021658,0.0002146678,-3678.9227053801,3.68407021453,3.624094023,0.0009334044,3.345799357,0.0885783036,-6.0419,-3.3799,2.662,0.84073,250.21172,-0.28126 0.17406 -0.00061,0.009475,0.004885,0.003223
2-0341,pubchemPCH,SEIYBDOWAZEQGG-UHFFFAOYSA-N,Clc1cc(Cl)c2-c3c(-c2c1Cl)c(Cl)c(c(c3Cl)Cl)Cl,C12HCl7,d4tzvp,393.311,1,12,7,-3679.706964535982,-3679.5997787352,0.0002146678,-3679.663781949501,3.662065088186,3.602088897,0.0009334044,3.3237942311,0.0885783036,-8.7945,-0.7971,7.9974,0.96034,236.06059,-0.31898 0.20248 -0.00042,0.009475,0.004885,0.003223
2-0342,pubchemPCH,SFBPXZXPMUZLAG-UHFFFAOYSA-N,Clc1c2c(c(Cl)c(c(c2Cl)Cl)Cl)c(c2c1c(Cl)c(c(c2Cl)Cl)Cl)Cl,C14Cl10,xtb2,522.684,0,14,10,-75.501955680266,-75.3862103711,0.000255201093,-75.462298576941,5.570555131546,5.5114625035,0.001073066909,5.191527603981,0.091620398881,-10.7807,-9.3153,1.465398071482,0.0,272.957435,-0.000 -0.000 0.000,0.006573614,0.002877434,0.002037522
2-0342,pubchemPCH,SFBPXZXPMUZLAG-UHFFFAOYSA-N,Clc1c2c(c(Cl)c(c(c2Cl)Cl)Cl)c(c2c1c(Cl)c(c(c2Cl)Cl)Cl)Cl,C14Cl10,r2scan,522.684,0,14,10,-5135.106344798431,-5134.9878433346,0.0002455998,-5135.0610689057,4.315386692148,4.2535367594,0.001153924,3.9094941079,0.0953241959,-5.7595,-4.0563,1.7032,0.00024,338.12277,-0.00007 0.00006 -0.00001,0.006492,0.00286,0.002058
2-0342,pubchemPCH,SFBPXZXPMUZLAG-UHFFFAOYSA-N,Clc1c2c(c(Cl)c(c(c2Cl)Cl)Cl)c(c2c1c(Cl)c(c(c2Cl)Cl)Cl)Cl,C14Cl10,d4tzvp,522.684,0,14,10,-5136.040540472644,-5135.9220390088,0.0002455998,-5135.9952645799,4.298132167883,4.2362822356,0.001153924,3.8922395841,0.0953241959,-8.3567,-1.8288,6.5279,8E-05,317.26434,-0.00002 -0.00001 -0.00002,0.006492,0.00286,0.002058
2-0343,pubchemPCH,SFZREMCYQNYZMZ-UHFFFAOYSA-N,Clc1cc(Cl)c2c(c1Cl)c(Cl)c(cc2Cl)Cl,C10H2Cl6,xtb2,334.844,2,10,6,-49.751045076632,-49.649756022377,0.00019619206,-49.708250685205,4.135965025344,4.077165481929,0.000768769796,3.847956767031,0.08529889203,-10.8827,-8.5226,2.36009115,0.89,182.396542,0.000 0.350 -0.000,0.01035556,0.009444736,0.0049592
2-0343,pubchemPCH,SFZREMCYQNYZMZ-UHFFFAOYSA-N,Clc1cc(Cl)c2c(c1Cl)c(Cl)c(cc2Cl)Cl,C10H2Cl6,r2scan,334.844,2,10,6,-3143.237035553157,-3143.1333372733,0.0001896474,-3143.1898806546,3.236371578389,3.1751619469,0.0008281006,2.9282636334,0.0882759188,-6.0309,-3.1576,2.8733,0.79763,204.08247,-0.00000 0.31381 -0.00001,0.01025,0.00914,0.005015
2-0343,pubchemPCH,SFZREMCYQNYZMZ-UHFFFAOYSA-N,Clc1cc(Cl)c2c(c1Cl)c(Cl)c(cc2Cl)Cl,C10H2Cl6,d4tzvp,334.844,2,10,6,-3143.868700670002,-3143.765002390101,0.0001896474,-3143.8215457714005,3.216699100012,3.1554894687,0.0008281006,2.9085911554,0.0882759188,-8.7871,-0.7157,8.0714,0.84831,195.98907,-0.00001 0.33375 -0.00001,0.01025,0.00914,0.005015