id,subset,key,smiles,formula,level,mwt,nH,nC,nCl,E,H,S,G,dE,dH,dS,dG,zpe,homo,lumo,gap,Mu,alpha,tMu,rotA,rotB,rotC
2-0286,pubchemPCH,PPHPFRUYUNRUFH-UHFFFAOYSA-N,c1ccc2c(c1)ccc1c2c(Cl)c(Cl)cc1,C14H8Cl2,r2scan,247.124,8,14,2,-1458.553479871901,-1458.3664647961,0.0001710407,-1458.4174605864,4.696294587763,4.5659310433,0.0010931887,4.2399967366,0.1740299139,-5.6731,-2.2366,3.4365,2.62869,194.80515,-0.58587 0.83113 0.18844,0.02744,0.010787,0.007847
2-0286,pubchemPCH,PPHPFRUYUNRUFH-UHFFFAOYSA-N,c1ccc2c(c1)ccc1c2c(Cl)c(Cl)cc1,C14H8Cl2,d4tzvp,247.124,8,14,2,-1459.202166278561,-1459.0151512028,0.0001710407,-1459.0661469931,4.637965671719,4.5076021272,0.0010931887,4.1816678213,0.1740299139,-8.3432,0.2567,8.5999,2.702,190.05161,-0.58283 0.86786 0.19277,0.02744,0.010787,0.007847
2-0287,pubchemPCH,PSXLNTWPMBACJY-UHFFFAOYSA-N,c1cc(Cl)c2c(c1)ccc1c2c(Cl)c(Cl)cc1,C14H7Cl3,xtb2,281.569,7,14,3,-47.208536879586,-47.034410582503,0.000185603578,-47.08974828924,5.900432928041,5.782959312078,0.001024333652,5.477554233082,0.159392657513,-10.4752,-7.7217,2.753540525713,3.843,184.634408,-0.761 1.304 0.082,0.01957459,0.01042108,0.007495861
2-0287,pubchemPCH,PSXLNTWPMBACJY-UHFFFAOYSA-N,c1cc(Cl)c2c(c1)ccc1c2c(Cl)c(Cl)cc1,C14H7Cl3,r2scan,281.569,7,14,3,-1918.122493828573,-1917.944241597,0.0001796866,-1917.997815168,4.648586941667,4.5269862414,0.0011014546,4.1985874497,0.164100803,-5.6709,-2.4527,3.2182,3.59502,207.39846,-0.70568 1.22294 0.08279,0.019283,0.010134,0.007378
2-0287,pubchemPCH,PSXLNTWPMBACJY-UHFFFAOYSA-N,c1cc(Cl)c2c(c1)ccc1c2c(Cl)c(Cl)cc1,C14H7Cl3,d4tzvp,281.569,7,14,3,-1918.805794086708,-1918.6275418551,0.0001796866,-1918.6811154261,4.594317517626,4.4727168173,0.0011014546,4.1443180263,0.164100803,-8.3609,0.0273,8.3882,3.75053,201.23638,-0.73578 1.27592 0.08875,0.019283,0.010134,0.007378
2-0288,pubchemPCH,PWXOBMRJWBBEED-UHFFFAOYSA-N,Clc1ccc2c(c1)c(Cl)c(cc2Cl)Cl,C10H4Cl4,xtb2,265.954,4,10,4,-41.675001629813,-41.556928084428,0.00017853843,-41.610159317449,4.238006320575,4.16242228603,0.000752614634,3.938030232647,0.104715396905,-10.87,-8.1567,2.713274336398,1.311,157.093261,0.151 0.493 -0.000,0.01768382,0.01080661,0.006707589
2-0288,pubchemPCH,PWXOBMRJWBBEED-UHFFFAOYSA-N,Clc1ccc2c(c1)c(Cl)c(cc2Cl)Cl,C10H4Cl4,r2scan,265.954,4,10,4,-2224.114797633641,-2223.9940046706,0.0001735951,-2224.0457620423,3.347576864409,3.2692725498,0.0008103293,3.0276727581,0.1078520494,-6.0843,-2.7902,3.2941,1.31862,173.9335,0.11256 0.50641 -0.00002,0.017466,0.010667,0.006623
2-0288,pubchemPCH,PWXOBMRJWBBEED-UHFFFAOYSA-N,Clc1ccc2c(c1)c(Cl)c(cc2Cl)Cl,C10H4Cl4,d4tzvp,265.954,4,10,4,-2224.674089815366,-2224.5532968524,0.0001735951,-2224.6050542241,3.316640169856,3.2383358554,0.0008103293,2.9967360641,0.1078520494,-8.8573,-0.2747,8.5826,1.3496,168.77496,0.09960 0.52154 -0.00003,0.017466,0.010667,0.006623
2-0289,pubchemPCH,PXXUOXYPWFRJOR-UHFFFAOYSA-N,c1c(Cl)c2ccc3c4c2c(-c2cccc(c42)cc3)c1,C18H9Cl,xtb2,260.723,9,18,1,-47.696758400454,-47.479917958916,0.00017741436,-47.53281405049,7.393553705499,7.242808058601,0.00121152659,6.881591404964,0.20295474948,-10.4493,-7.9258,2.523508212571,2.019,194.43676,0.789 -0.094 -0.000,0.02506395,0.009176874,0.006717383
2-0289,pubchemPCH,PXXUOXYPWFRJOR-UHFFFAOYSA-N,c1c(Cl)c2ccc3c4c2c(-c2cccc(c42)cc3)c1,C18H9Cl,r2scan,260.723,9,18,1,-1151.384084196384,-1151.1629563733,0.000174884,-1151.215098049,5.814756165942,5.6597217961,0.0012992584,5.2723478009,0.2074666124,-5.7875,-2.8661,2.9214,1.90128,229.15813,0.73494 -0.13920 -0.00013,0.024921,0.009085,0.006658
2-0289,pubchemPCH,PXXUOXYPWFRJOR-UHFFFAOYSA-N,c1c(Cl)c2ccc3c4c2c(-c2cccc(c42)cc3)c1,C18H9Cl,d4tzvp,260.723,9,18,1,-1152.143163484323,-1151.9220356612,0.000174884,-1151.9741773369,5.734995008589,5.5799606386,0.0012992584,5.1925866443,0.2074666124,-8.4832,-0.5006,7.9826,1.96419,223.07232,0.75682 -0.15612 -0.00013,0.024921,0.009085,0.006658
2-0290,pubchemPCH,PYUBWWJWBUUHTD-UHFFFAOYSA-N,Clc1c(Cl)cc2c(c1)cc1c(c2)cc(cc1)Cl,C14H7Cl3,xtb2,281.569,7,14,3,-47.218875326563,-47.044787030885,0.000187873607,-47.100801546695,5.910771375018,5.79333576046,0.001022063623,5.488607490537,0.159205977938,-10.4444,-8.2897,2.154649229901,1.592,184.527582,-0.512 -0.361 0.000,0.03799634,0.004479943,0.004007446
2-0290,pubchemPCH,PYUBWWJWBUUHTD-UHFFFAOYSA-N,Clc1c(Cl)cc2c(c1)cc1c(c2)cc(cc1)Cl,C14H7Cl3,r2scan,281.569,7,14,3,-1918.140665611601,-1917.9629141793,0.0001829644,-1918.0174650052,4.666758724695,4.5456588237,0.0010981768,4.2182372869,0.1632949885,-5.5028,-3.0506,2.4522,1.50281,231.9146,-0.45647 -0.37577 0.00001,0.037054,0.004453,0.003976
2-0290,pubchemPCH,PYUBWWJWBUUHTD-UHFFFAOYSA-N,Clc1c(Cl)cc2c(c1)cc1c(c2)cc(cc1)Cl,C14H7Cl3,d4tzvp,281.569,7,14,3,-1918.820032401045,-1918.6422809687,0.0001829644,-1918.6968317946,4.608555831963,4.4874559309,0.0010981768,4.1600343948,0.1632949885,-8.0674,-0.6506,7.4168,1.58222,222.08496,-0.49367 -0.37918 0.00001,0.037054,0.004453,0.003976
2-0291,pubchemPCH,PYVNFWNWGQIYOT-UHFFFAOYSA-N,Clc1ccc2c(c1)ccc1c2c2c(cc1)ccc1c2ccc(c1)Cl,C22H12Cl2,xtb2,347.244,12,22,2,-62.35994150964,-62.081168502724,0.000213260508,-62.144752123144,9.220577902456,9.02678391722,0.00157114945,8.558345707588,0.259720046215,-10.3767,-7.6501,2.726540697531,3.529,251.99072,0.000 1.388 -0.000,0.008352517,0.005567352,0.003531005
2-0291,pubchemPCH,PYVNFWNWGQIYOT-UHFFFAOYSA-N,Clc1ccc2c(c1)ccc1c2c2c(cc1)ccc1c2ccc(c1)Cl,C22H12Cl2,r2scan,347.244,12,22,2,-1765.778401802456,-1765.4930253145,0.0002055241,-1765.5543023143,7.274401077434,7.0740018865,0.0016869625,6.5710338593,0.2670487006,-5.6008,-2.4756,3.1252,3.23192,306.05186,0.00004 1.27151 -0.00001,0.008353,0.005379,0.003455
2-0291,pubchemPCH,PYVNFWNWGQIYOT-UHFFFAOYSA-N,Clc1ccc2c(c1)ccc1c2c2c(cc1)ccc1c2ccc(c1)Cl,C22H12Cl2,d4tzvp,347.244,12,22,2,-1766.742505350239,-1766.4571288622,0.0002055241,-1766.518405862,7.175698971773,6.9752997806,0.0016869625,6.4723317546,0.2670487006,-8.2075,-0.0451,8.1624,3.33583,293.48679,0.00001 1.31239 -0.00002,0.008353,0.005379,0.003455
2-0292,pubchemPCH,PZBHYPUOOYIRCY-UHFFFAOYSA-N,Clc1ccc2c(c1)c1cc(Cl)ccc1c(c2Cl)Cl,C14H6Cl4,xtb2,316.014,6,14,4,-51.275288229393,-51.108947532338,0.00019710405,-51.167714104763,5.878141906823,5.768453890888,0.001029737576,5.461437631919,0.150088666313,-10.6974,-8.024,2.673435991026,0.006,196.869217,0.000 -0.002 0.000,0.00924923,0.008283217,0.004369806
2-0292,pubchemPCH,PZBHYPUOOYIRCY-UHFFFAOYSA-N,Clc1ccc2c(c1)c1cc(Cl)ccc1c(c2Cl)Cl,C14H6Cl4,r2scan,316.014,6,14,4,-2377.727502625879,-2377.5579375194,0.0001926141,-2377.6153654149,4.636874136205,4.523960561,0.0011054389,4.1943738281,0.1535277903,-5.9196,-2.6395,3.2801,0.29488,229.82678,-0.00000 0.11601 0.00000,0.009106,0.008242,0.004326
2-0292,pubchemPCH,PZBHYPUOOYIRCY-UHFFFAOYSA-N,Clc1ccc2c(c1)c1cc(Cl)ccc1c(c2Cl)Cl,C14H6Cl4,d4tzvp,316.014,6,14,4,-2378.447323784682,-2378.2777586782004,0.0001926141,-2378.3351865737004,4.58857125336,4.4756576782,0.0011054389,4.1460709459,0.1535277903,-8.6066,-0.1863,8.4203,0.31627,221.28106,-0.00002 0.12443 0.00000,0.009106,0.008242,0.004326
2-0293,pubchemPCH,PZCCKIQXAAUPPL-UHFFFAOYSA-N,c1ccc2c(c1)c1cccc(c1cc2Cl)Cl,C14H8Cl2,xtb2,247.124,8,14,2,-43.175594711405,-42.992676425414,0.000176974594,-43.045441400686,5.956533130885,5.830267526014,0.00101605824,5.527329761214,0.16936104164,-10.4907,-7.5917,2.899052948888,3.103,172.149081,-0.296 -1.184 0.000,0.02176003,0.01171907,0.00761691
2-0293,pubchemPCH,PZCCKIQXAAUPPL-UHFFFAOYSA-N,c1ccc2c(c1)c1cccc(c1cc2Cl)Cl,C14H8Cl2,r2scan,247.124,8,14,2,-1458.567994751617,-1458.3810718643,0.0001728892,-1458.4326187852,4.710809467479,4.5805381115,0.0010913402,4.2551549354,0.1737465862,-5.7693,-2.3444,3.4249,3.00121,194.27025,-0.30795 -1.13988 0.00012,0.021459,0.011588,0.007525
2-0293,pubchemPCH,PZCCKIQXAAUPPL-UHFFFAOYSA-N,c1ccc2c(c1)c1cccc(c1cc2Cl)Cl,C14H8Cl2,d4tzvp,247.124,8,14,2,-1459.216360967906,-1459.0294380806,0.0001728892,-1459.0809850015,4.652160361064,4.521889005,0.0010913402,4.1965058297,0.1737465862,-8.461,0.1564,8.6174,3.0226,189.95565,-0.27229 -1.15757 0.00012,0.021459,0.011588,0.007525
2-0294,pubchemPCH,PZPQOVDKDYMUOO-UHFFFAOYSA-N,Clc1c(Cl)c2ccc3c4c2c(c1Cl)c(Cl)c(c4c(cc3)Cl)Cl,C16H4Cl6,xtb2,408.926,4,16,6,-63.65895519754,-63.496287422847,0.0002222843,-63.562561487016,6.49713139019,6.395837353377,0.001144772374,6.05452346943,0.143081258933,-10.5637,-8.6077,1.955980792578,3.98,239.647685,0.596 1.448 -0.001,0.009573108,0.004755203,0.003218685
2-0294,pubchemPCH,PZPQOVDKDYMUOO-UHFFFAOYSA-N,Clc1c(Cl)c2ccc3c4c2c(c1Cl)c(Cl)c(c4c(cc3)Cl)Cl,C16H4Cl6,r2scan,408.926,4,16,6,-3373.070407349417,-3372.9045040376,0.0002145621,-3372.9684757225,5.081903479671,4.97737266,0.0012307269,4.6104312653,0.1468717398,-5.7187,-3.2471,2.4716,3.76427,290.775,0.50741 1.39123 -0.01509,0.009341,0.004705,0.00327
2-0294,pubchemPCH,PZPQOVDKDYMUOO-UHFFFAOYSA-N,Clc1c(Cl)c2ccc3c4c2c(c1Cl)c(Cl)c(c4c(cc3)Cl)Cl,C16H4Cl6,d4tzvp,408.926,4,16,6,-3373.93353417254,-3373.7676308607,0.0002145621,-3373.8316025456,5.034607801172,4.9300769817,0.0012307269,4.5631355874,0.1468717398,-8.2178,-1.003,7.2148,3.97983,278.01876,0.53651 1.47082 -0.02060,0.009341,0.004705,0.00327
2-0295,pubchemPCH,PZVUMKHFARWWLY-UHFFFAOYSA-N,Clc1c(Cl)c2c(Cl)ccc3c2c(c1Cl)c1cccc2c1c3ccc2,C20H8Cl4,xtb2,390.096,8,20,4,-65.152942368115,-64.925612351989,0.000221575117,-64.991674973131,8.209052289483,8.057259181517,0.001407361327,7.637654400875,0.20755237732,-10.1386,-8.4369,1.701677817885,4.612,254.599413,-1.653 -0.725 0.186,0.009313389,0.005123904,0.003387697
2-0295,pubchemPCH,PZVUMKHFARWWLY-UHFFFAOYSA-N,Clc1c(Cl)c2c(Cl)ccc3c2c(c1Cl)c1cccc2c1c3ccc2,C20H8Cl4,r2scan,390.096,8,20,4,-2607.517826257893,-2607.2854919239,0.0002137024,-2607.3492073039,6.439357873241,6.2825589143,0.0015118916,5.8317882811,0.2132273519,-5.1976,-3.2814,1.9162,4.21139,319.43279,-1.54490 -0.56524 0.19738,0.009168,0.00507,0.003363
2-0295,pubchemPCH,PZVUMKHFARWWLY-UHFFFAOYSA-N,Clc1c(Cl)c2c(Cl)ccc3c2c(c1Cl)c1cccc2c1c3ccc2,C20H8Cl4,d4tzvp,390.096,8,20,4,-2608.468671092628,-2608.2363367585995,0.0002137024,-2608.3000521386,6.362993759928,6.206194801,0.0015118916,5.7554241686,0.2132273519,-7.6041,-1.0447,6.5594,4.38266,303.54775,-1.59924 -0.61100 0.20517,0.009168,0.00507,0.003363
2-0296,pubchemPCH,QBYRCJCPADWWBX-UHFFFAOYSA-N,c1cc(Cl)c2c3c1ccc1c3c(cc2)c(cc1)Cl,C16H8Cl2,xtb2,271.146,8,16,2,-47.484064269631,-47.288149497557,0.000179391763,-47.341635151698,6.678409946381,6.543868912187,0.001120047327,6.209926800856,0.181673896302,-10.1929,-7.9569,2.235960518815,2.724,189.511007,-0.000 1.072 0.000,0.01960765,0.009033934,0.006184512
2-0296,pubchemPCH,QBYRCJCPADWWBX-UHFFFAOYSA-N,c1cc(Cl)c2c3c1ccc1c3c(cc2)c(cc1)Cl,C16H8Cl2,r2scan,271.146,8,16,2,-1534.791911714148,-1534.591915673,0.0001749221,-1534.6440686986,5.270294255474,5.1316707066,0.0012027197,4.7730797154,0.186108981,-5.3798,-2.7,2.6798,2.61405,225.92794,-0.00005 1.02842 0.00007,0.019432,0.008914,0.006111
2-0296,pubchemPCH,QBYRCJCPADWWBX-UHFFFAOYSA-N,c1cc(Cl)c2c3c1ccc1c3c(cc2)c(cc1)Cl,C16H8Cl2,d4tzvp,271.146,8,16,2,-1535.509679873114,-1535.3096838319998,0.0001749221,-1535.3618368576,5.199857350706,5.0612338018,0.0012027197,4.7026428114,0.186108981,-7.8354,-0.3962,7.4392,2.73478,220.16132,-0.00002 1.07592 0.00007,0.019432,0.008914,0.006111
2-0297,pubchemPCH,QDOJLVJSWJMFDU-UHFFFAOYSA-N,c1cc2cc3ccccc3cc2c2c1c1cc3ccc(c(c3cc1cc2)Cl)Cl,C26H14Cl2,xtb2,397.304,14,26,2,-71.952099201309,-71.625390791274,0.000238177576,-71.696403435633,10.852584580793,10.625018362718,0.001841920944,10.075849632035,0.304467839487,-9.9263,-8.0801,1.846148057551,3.796,292.228617,1.360 -0.617 -0.000,0.0215437,0.001823695,0.001681366
2-0297,pubchemPCH,QDOJLVJSWJMFDU-UHFFFAOYSA-N,c1cc2cc3ccccc3cc2c2c1c1cc3ccc(c(c3cc1cc2)Cl)Cl,C26H14Cl2,r2scan,397.304,14,26,2,-1919.388940388743,-1919.0552419381,0.0002300127,-1919.1238202172,8.561531943279,8.3269736725,0.0019766025,7.7376494596,0.3121022958,-5.091,-2.9466,2.1444,3.39164,414.8653,1.20457 -0.57402 0.00005,0.021258,0.00181,0.001668
2-0297,pubchemPCH,QDOJLVJSWJMFDU-UHFFFAOYSA-N,c1cc2cc3ccccc3cc2c2c1c1cc3ccc(c(c3cc1cc2)Cl)Cl,C26H14Cl2,d4tzvp,397.304,14,26,2,-1920.5105413604,-1920.1768429098,0.0002300127,-1920.2454211889003,8.442432096122,8.2078738252,0.0019766025,7.6185496137,0.3121022958,-7.4947,-0.6454,6.8493,3.36747,388.73679,1.18516 -0.59211 0.00005,0.021258,0.00181,0.001668
2-0298,pubchemPCH,QEEAYCGXMYQIIF-UHFFFAOYSA-N,c1cc(Cl)c(c2c1cc1c(c2)c(Cl)ccc1)Cl,C14H7Cl3,xtb2,281.569,7,14,3,-47.218103809515,-47.043846267868,0.000187349467,-47.099704511357,5.90999985797,5.792394997443,0.001022587763,5.487510455199,0.159410967424,-10.3315,-8.2379,2.093637251937,3.946,184.549189,-0.715 -1.378 0.000,0.02322039,0.007134746,0.005457778
2-0298,pubchemPCH,QEEAYCGXMYQIIF-UHFFFAOYSA-N,c1cc(Cl)c(c2c1cc1c(c2)c(Cl)ccc1)Cl,C14H7Cl3,r2scan,281.569,7,14,3,-1918.1397739223,-1917.9616013919,0.0001820089,-1918.0158673459,4.665867035394,4.5443460363,0.0010991323,4.2166396276,0.1637935786,-5.4587,-3.0232,2.4355,3.80245,219.08813,-0.64706 -1.34879 0.00000,0.022911,0.007047,0.00539
2-0298,pubchemPCH,QEEAYCGXMYQIIF-UHFFFAOYSA-N,c1cc(Cl)c(c2c1cc1c(c2)c(Cl)ccc1)Cl,C14H7Cl3,d4tzvp,281.569,7,14,3,-1918.820337178234,-1918.6421646478,0.0001820089,-1918.6964306018,4.608860609152,4.48733961,0.0010991323,4.159633202,0.1637935786,-8.0193,-0.6328,7.3865,3.9263,212.58036,-0.68296 -1.38551 0.00000,0.022911,0.007047,0.00539
2-0299,pubchemPCH,QEPTXDCPBXMWJC-UHFFFAOYSA-N,c1ccc2c(c1)cc(c(c2Cl)Cl)Cl,C10H5Cl3,xtb2,231.509,5,10,3,-37.622549569125,-37.496227254828,0.000167336358,-37.546118589971,4.274596630912,4.190763827455,0.00074691231,3.968071921855,0.11427807702,-10.7674,-7.8706,2.896788292351,3.254,144.831617,1.203 0.439 -0.000,0.02741642,0.01532065,0.009828408
2-0299,pubchemPCH,QEPTXDCPBXMWJC-UHFFFAOYSA-N,c1ccc2c(c1)cc(c(c2Cl)Cl)Cl,C10H5Cl3,r2scan,231.509,5,10,3,-1764.530167497456,-1764.4009353033,0.0001626616,-1764.4494328686,3.379668330992,3.2929247853,0.000804351,3.0531074529,0.1176306947,-5.953,-2.5278,3.4252,3.02007,157.22703,1.12182 0.39148 -0.00006,0.026806,0.015212,0.009705
2-0299,pubchemPCH,QEPTXDCPBXMWJC-UHFFFAOYSA-N,c1ccc2c(c1)cc(c(c2Cl)Cl)Cl,C10H5Cl3,d4tzvp,231.509,5,10,3,-1765.054789564161,-1764.92555737,0.0001626616,-1764.9740549353,3.344615880891,3.2578723352,0.000804351,3.0180550033,0.1176306947,-8.7181,0.0121,8.7302,3.14852,153.72219,1.16824 0.41181 -0.00006,0.026806,0.015212,0.009705
2-0300,pubchemPCH,QGFHQIHSEPNVKV-UHFFFAOYSA-N,c1cccc2c1cc1c(c2)c(Cl)ccc1Cl,C14H8Cl2,xtb2,247.124,8,14,2,-43.168630633565,-42.986136347607,0.000175307839,-43.038404379841,5.949569053045,5.823727448207,0.001017724995,5.520292740369,0.168956186231,-10.205,-8.0583,2.146708543481,1.262,172.187861,-0.496 -0.000 0.000,0.01858772,0.01186105,0.007240682
2-0300,pubchemPCH,QGFHQIHSEPNVKV-UHFFFAOYSA-N,c1cccc2c1cc1c(c2)c(Cl)ccc1Cl,C14H8Cl2,r2scan,247.124,8,14,2,-1458.560929507595,-1458.3742718681,0.0001702097,-1458.4250198806,4.703744223457,4.5737381153,0.0010940197,4.2475560308,0.1735649321,-5.3436,-2.8988,2.4448,1.16118,201.73623,-0.45684 -0.00004 0.00001,0.018272,0.011749,0.007151
2-0300,pubchemPCH,QGFHQIHSEPNVKV-UHFFFAOYSA-N,c1cccc2c1cc1c(c2)c(Cl)ccc1Cl,C14H8Cl2,d4tzvp,247.124,8,14,2,-1459.205544702013,-1459.0188870625002,0.0001702097,-1459.0696350750002,4.641344095171,4.5113379869,0.0010940197,4.1851559032,0.1735649321,-7.896,-0.4976,7.3984,1.06581,197.49548,-0.41931 -0.00001 0.00000,0.018272,0.011749,0.007151
2-0301,pubchemPCH,QIHYLXIGTIJEIM-UHFFFAOYSA-N,c1c(Cl)cc2c(c1)c1ccccc1cc2Cl,C14H8Cl2,xtb2,247.124,8,14,2,-43.176266693309,-42.993437754939,0.000177667065,-43.046409190377,5.957205112789,5.831028855539,0.001015365769,5.528297550905,0.169260424321,-10.5886,-7.6207,2.967890944319,3.264,172.149639,-1.132 -0.605 0.000,0.02388519,0.009798474,0.006948128
2-0301,pubchemPCH,QIHYLXIGTIJEIM-UHFFFAOYSA-N,c1c(Cl)cc2c(c1)c1ccccc1cc2Cl,C14H8Cl2,r2scan,247.124,8,14,2,-1458.56923580188,-1458.3824851923,0.0001731799,-1458.4341187808,4.712050517742,4.5819514395,0.0010910495,4.256654931,0.1735497953,-5.854,-2.3599,3.4941,3.10615,197.84343,-1.06905 -0.59201 0.00003,0.023495,0.009714,0.006872
2-0301,pubchemPCH,QIHYLXIGTIJEIM-UHFFFAOYSA-N,c1c(Cl)cc2c(c1)c1ccccc1cc2Cl,C14H8Cl2,d4tzvp,247.124,8,14,2,-1459.217103243258,-1459.0303526337,0.0001731799,-1459.0819862222,4.652902636416,4.5228035581,0.0010910495,4.1975070504,0.1735497953,-8.5482,0.1622,8.7104,3.18079,192.53288,-1.10578 -0.58585 0.00002,0.023495,0.009714,0.006872
2-0302,pubchemPCH,QJVHQTYDXRCQCK-UHFFFAOYSA-N,Clc1ccc2c(c1)ccc1c2c2ccccc2cc1,C18H11Cl,xtb2,262.739,11,18,1,-48.713868336881,-48.474752043321,0.000185455951,-48.530045735195,7.623698114054,7.455397671894,0.001286361049,7.071869124367,0.224215858673,-10.2243,-7.4594,2.764879611782,2.341,199.863553,0.861 0.325 -0.017,0.02415028,0.007248323,0.005665935
2-0302,pubchemPCH,QJVHQTYDXRCQCK-UHFFFAOYSA-N,Clc1ccc2c(c1)ccc1c2c2ccccc2cc1,C18H11Cl,r2scan,262.739,11,18,1,-1152.590484554303,-1152.3457138517,0.0001799612,-1152.3993692943,6.026613152491,5.8526568641,0.001381485,5.4407670104,0.2304187211,-5.4823,-2.3529,3.1294,2.1965,237.87345,0.81057 0.29952 -0.00545,0.024101,0.007115,0.005572
2-0302,pubchemPCH,QJVHQTYDXRCQCK-UHFFFAOYSA-N,Clc1ccc2c(c1)ccc1c2c2ccccc2cc1,C18H11Cl,d4tzvp,262.739,11,18,1,-1153.360914679302,-1153.1161439767002,0.0001799612,-1153.1697994193,5.942687148888,5.7687308603,0.001381485,5.3568410077,0.2304187211,-8.0746,0.0944,8.169,2.22221,230.3533,0.81581 0.31428 -0.00513,0.024101,0.007115,0.005572
2-0303,pubchemPCH,QLJQRLSANDAISC-UHFFFAOYSA-N,c1ccc2-c3c(-c2c1)ccc(c3Cl)Cl,C12H6Cl2,xtb2,221.086,6,12,2,-37.794376051559,-37.647590807104,0.000166870233,-37.697343166925,4.948872741641,4.849298064786,0.000836880295,4.599782204125,0.134734071181,-10.3915,-7.781,2.610455804421,2.981,146.611398,-0.966 0.665 -0.000,0.0418942,0.01158711,0.009076677
2-0303,pubchemPCH,QLJQRLSANDAISC-UHFFFAOYSA-N,c1ccc2-c3c(-c2c1)ccc(c3Cl)Cl,C12H6Cl2,r2scan,221.086,6,12,2,-1381.075714986224,-1380.9261847133,0.0001636415,-1380.9749744254,3.877505247992,3.7751845845,0.0008998717,3.5068877448,0.1377286045,-5.458,-2.5662,2.8918,2.80471,170.82733,-0.87999 0.66572 -0.00011,0.04136,0.01148,0.008986
2-0303,pubchemPCH,QLJQRLSANDAISC-UHFFFAOYSA-N,c1ccc2-c3c(-c2c1)ccc(c3Cl)Cl,C12H6Cl2,d4tzvp,221.086,6,12,2,-1381.638208416872,-1381.488678144,0.0001636415,-1381.5374678561,3.829688780276,3.7273681168,0.0008998717,3.4590712777,0.1377286045,-8.1898,0.0918,8.2816,2.8825,165.61004,-0.89944 0.69069 -0.00010,0.04136,0.01148,0.008986
2-0304,pubchemPCH,QMLWYNVDMVLZCU-UHFFFAOYSA-N,c1ccc2c(c1)cc(c1c2c(Cl)ccc1)Cl,C14H8Cl2,xtb2,247.124,8,14,2,-43.168079555856,-42.985214723857,0.000176488843,-43.037834872324,5.949017975336,5.822805824457,0.001016543991,5.519723232852,0.169376601345,-10.4904,-7.5895,2.900866333672,0.6,172.138291,-0.208 -0.050 -0.100,0.0175444,0.01477243,0.008115211
2-0304,pubchemPCH,QMLWYNVDMVLZCU-UHFFFAOYSA-N,c1ccc2c(c1)cc(c1c2c(Cl)ccc1)Cl,C14H8Cl2,r2scan,247.124,8,14,2,-1458.556488423399,-1458.3693557941,0.000171648,-1458.4205326331,4.699303139261,4.5688220413,0.0010925814,4.2430687833,0.1740973517,-5.722,-2.3459,3.3761,0.5613,193.44015,-0.16378 -0.06276 -0.13417,0.017209,0.014601,0.008
2-0304,pubchemPCH,QMLWYNVDMVLZCU-UHFFFAOYSA-N,c1ccc2c(c1)cc(c1c2c(Cl)ccc1)Cl,C14H8Cl2,d4tzvp,247.124,8,14,2,-1459.204942681532,-1459.0178100522,0.000171648,-1459.0689868912,4.64074207469,4.5102609766,0.0010925814,4.1845077194,0.1740973517,-8.3991,0.1494,8.5485,0.54405,189.24775,-0.15740 -0.05351 -0.13481,0.017209,0.014601,0.008
2-0305,pubchemPCH,QMXUORARMLOYOI-UHFFFAOYSA-N,Clc1c(Cl)c(Cl)c2c(c1Cl)c1ccccc1cc2,C14H6Cl4,xtb2,316.014,6,14,4,-51.257395437779,-51.091163832342,0.000197913848,-51.150171846161,5.860249115209,5.750670190892,0.001028927778,5.443895373317,0.150027530315,-10.7189,-7.9426,2.776327397704,3.469,197.360091,-1.309 0.382 0.055,0.01530594,0.007702191,0.005180951
2-0305,pubchemPCH,QMXUORARMLOYOI-UHFFFAOYSA-N,Clc1c(Cl)c(Cl)c2c(c1Cl)c1ccccc1cc2,C14H6Cl4,r2scan,316.014,6,14,4,-2377.704495297881,-2377.5342604822,0.0001902357,-2377.5909792479,4.613866808207,4.5002835238,0.0011078173,4.1699876611,0.1547098839,-5.8809,-2.5953,3.2856,3.08897,227.22658,-1.16684 0.33023 0.07949,0.015075,0.007607,0.005136