id,subset,key,smiles,formula,level,mwt,nH,nC,nCl,E,H,S,G,dE,dH,dS,dG,zpe,homo,lumo,gap,Mu,alpha,tMu,rotA,rotB,rotC
2-0267,pubchemPCH,OKKOFLXECXPQAH-UHFFFAOYSA-N,c1ccc2c(c1)c1c(cc2)ccc2c1c(Cl)ccc2Cl,C18H10Cl2,r2scan,297.184,10,18,2,-1612.159440012045,-1611.9233104929,0.0001886717,-1611.9795629533,5.978847007465,5.8135319025,0.0013896863,5.3991968009,0.2205496044,-5.5496,-2.5462,3.0034,1.12159,247.3348,0.39796 -0.15182 0.11528,0.017866,0.007269,0.005646
2-0267,pubchemPCH,OKKOFLXECXPQAH-UHFFFAOYSA-N,c1ccc2c(c1)c1c(cc2)ccc2c1c(Cl)ccc2Cl,C18H10Cl2,d4tzvp,297.184,10,18,2,-1612.96556235076,-1612.7294328317,0.0001886717,-1612.7856852921,5.900058858106,5.7347437531,0.0013896863,5.3204086525,0.2205496044,-8.1592,-0.1291,8.0301,0.99012,239.70872,0.34266 -0.14555 0.11461,0.017866,0.007269,0.005646
2-0268,pubchemPCH,OMZALIAZQKOHRD-UHFFFAOYSA-N,c1c(Cl)c(Cl)c2c(c1)c1c(cc2)ccc(c1)Cl,C14H7Cl3,xtb2,281.569,7,14,3,-47.224915010419,-47.050354104376,0.00018795797,-47.106393773185,5.916811058874,5.798902833951,0.00102197926,5.494199717027,0.159676190062,-10.6676,-7.7797,2.887888628493,1.653,184.511192,-0.594 0.265 -0.000,0.02764676,0.005795128,0.004790893
2-0268,pubchemPCH,OMZALIAZQKOHRD-UHFFFAOYSA-N,c1c(Cl)c(Cl)c2c(c1)c1c(cc2)ccc(c1)Cl,C14H7Cl3,r2scan,281.569,7,14,3,-1918.147485991407,-1917.9691665827,0.0001829342,-1918.0237084257,4.673579104501,4.5519112271,0.001098207,4.2244807074,0.1638616433,-5.9101,-2.4573,3.4528,1.59555,214.87261,-0.55790 0.28773 -0.00001,0.027109,0.00575,0.004744
2-0268,pubchemPCH,OMZALIAZQKOHRD-UHFFFAOYSA-N,c1c(Cl)c(Cl)c2c(c1)c1c(cc2)ccc(c1)Cl,C14H7Cl3,d4tzvp,281.569,7,14,3,-1918.83119374157,-1918.6528743329,0.0001829342,-1918.7074161759,4.619717172488,4.4980492951,0.001098207,4.1706187761,0.1638616433,-8.5915,0.0499,8.6414,1.61718,207.66998,-0.56604 0.29049 -0.00001,0.027109,0.00575,0.004744
2-0269,pubchemPCH,OTTCXKPQKOLSJN-UHFFFAOYSA-N,c1c(Cl)cc2c(c1Cl)cc(cc2Cl)Cl,C10H4Cl4,xtb2,265.954,4,10,4,-41.677436040916,-41.559403360291,0.000175863859,-41.611837169954,4.240440731678,4.164897561893,0.000755289205,3.939708085152,0.104675730404,-10.9082,-8.1956,2.712537499922,0.0,157.012302,-0.000 -0.000 0.000,0.01752072,0.01040937,0.006529861
2-0269,pubchemPCH,OTTCXKPQKOLSJN-UHFFFAOYSA-N,c1c(Cl)cc2c(c1Cl)cc(cc2Cl)Cl,C10H4Cl4,r2scan,265.954,4,10,4,-2224.117660544963,-2223.9968491194,0.0001718399,-2224.0480831737,3.350439775731,3.2721169986,0.0008120845,3.0299938895,0.107865833,-6.0893,-2.8544,3.2349,7E-05,174.82468,-0.00000 -0.00003 0.00000,0.017239,0.010294,0.006445
2-0269,pubchemPCH,OTTCXKPQKOLSJN-UHFFFAOYSA-N,c1c(Cl)cc2c(c1Cl)cc(cc2Cl)Cl,C10H4Cl4,d4tzvp,265.954,4,10,4,-2224.67606421499,-2224.5552527894,0.0001718399,-2224.6064868437,3.31861456948,3.2402917924,0.0008120845,2.9981686837,0.107865833,-8.8459,-0.3279,8.518,0.0,169.4643,0.00000 -0.00000 0.00000,0.017239,0.010294,0.006445
2-0270,pubchemPCH,OVAYDYKVLHHIDQ-UHFFFAOYSA-N,c1c(Cl)c(Cl)c2c(c1)cc(cc2Cl)Cl,C10H4Cl4,xtb2,265.954,4,10,4,-41.668890538913,-41.550894545224,0.000177275539,-41.603749247153,4.231895229675,4.156388746826,0.000753877525,3.931620162351,0.104684760219,-10.7709,-8.1299,2.640924586441,2.305,157.147378,-0.185 -0.888 0.000,0.02573992,0.009342462,0.006854558
2-0270,pubchemPCH,OVAYDYKVLHHIDQ-UHFFFAOYSA-N,c1c(Cl)c(Cl)c2c(c1)cc(cc2Cl)Cl,C10H4Cl4,r2scan,265.954,4,10,4,-2224.100482351346,-2223.9799994094,0.0001755294,-2224.0323334939,3.333261582114,3.2552672886,0.000808395,3.0142442097,0.1074676925,-5.9527,-2.7527,3.2,2.32579,173.75976,-0.17150 -0.89880 0.00007,0.025018,0.009188,0.00672
2-0270,pubchemPCH,OVAYDYKVLHHIDQ-UHFFFAOYSA-N,c1c(Cl)c(Cl)c2c(c1)cc(cc2Cl)Cl,C10H4Cl4,d4tzvp,265.954,4,10,4,-2224.659985384721,-2224.5395024428003,0.0001755294,-2224.5918365273,3.302535739211,3.2245414458,0.000808395,2.9835183673,0.1074676925,-8.706,-0.2375,8.4685,2.46781,168.58453,-0.20139 -0.94978 0.00007,0.025018,0.009188,0.00672
2-0271,pubchemPCH,OVSKLQPHXHPXDR-UHFFFAOYSA-N,Clc1cc(Cl)c2c(c1)c(Cl)c(c(c2)Cl)Cl,C10H3Cl5,xtb2,300.399,3,10,5,-45.72114413043,-45.611405586195,0.000188929118,-45.667734802689,4.195106450167,4.127857416772,0.000759128342,3.901523301201,0.095028009777,-11.0284,-8.364,2.664343209797,0.96,169.700248,0.336 0.172 -0.000,0.01575181,0.00819035,0.005388522
2-0271,pubchemPCH,OVSKLQPHXHPXDR-UHFFFAOYSA-N,Clc1cc(Cl)c2c(c1)c(Cl)c(c(c2)Cl)Cl,C10H3Cl5,r2scan,300.399,3,10,5,-2683.690923499819,-2683.578614635,0.0001832692,-2683.6332563582,3.306981127819,3.2371609114,0.000817567,2.9934032055,0.0980900715,-6.1727,-2.9634,3.2093,0.86573,190.4797,0.30158 0.15828 -0.00001,0.015469,0.008121,0.005325
2-0271,pubchemPCH,OVSKLQPHXHPXDR-UHFFFAOYSA-N,Clc1cc(Cl)c2c(c1)c(Cl)c(c(c2)Cl)Cl,C10H3Cl5,d4tzvp,300.399,3,10,5,-2684.286365148133,-2684.1740562833,0.0001832692,-2684.2286980065,3.281639540383,3.2118193241,0.000817567,2.9680616185,0.0980900715,-8.9352,-0.4646,8.4706,0.97131,183.46299,0.34317 0.16811 -0.00001,0.015469,0.008121,0.005325
2-0272,pubchemPCH,OWFINXQLBMJDJQ-UHFFFAOYSA-N,Clc1ccc2c(c1)cc1c(c2)cccc1,C14H9Cl,xtb2,212.679,9,14,1,-39.117835802471,-38.927278066941,0.000165997007,-38.976770074655,5.987816592976,5.853911538566,0.001010131431,5.552740851869,0.178328270326,-10.0786,-7.849,2.229561215991,2.248,159.927175,-0.837 -0.287 0.000,0.0628865,0.008854028,0.007761287
2-0272,pubchemPCH,OWFINXQLBMJDJQ-UHFFFAOYSA-N,Clc1ccc2c(c1)cc1c(c2)cccc1,C14H9Cl,r2scan,212.679,9,14,1,-998.980417622029,-998.7856435223,0.0001623057,-998.8340349547,4.739953940659,4.6018313723,0.0010850119,4.2783349734,0.1829268735,-5.2313,-2.6991,2.5322,2.11235,192.41215,-0.77542 -0.29894 0.00001,0.062128,0.008781,0.007694
2-0272,pubchemPCH,OWFINXQLBMJDJQ-UHFFFAOYSA-N,Clc1ccc2c(c1)cc1c(c2)cccc1,C14H9Cl,d4tzvp,212.679,9,14,1,-999.589052918763,-999.3942788191,0.0001623057,-999.4426702515,4.672128274161,4.5340057057,0.0010850119,4.2105093077,0.1829268735,-7.7851,-0.2737,7.5114,2.14771,188.04379,-0.79068 -0.29796 0.00001,0.062128,0.008781,0.007694
2-0273,pubchemPCH,OWUVHAAIHZKGDZ-UHFFFAOYSA-N,c1ccc2c(c1)c1ccc3c(c1cc2)c(Cl)c(cc3Cl)Cl,C18H9Cl3,xtb2,331.629,9,18,3,-56.809040517757,-56.586378782694,0.00020735938,-56.64820298197,7.54078555288,7.388939669217,0.001298266412,7.00186153777,0.204963455399,-10.3866,-7.8964,2.4901510725,2.867,224.669291,-1.068 -0.328 0.153,0.01437511,0.005205606,0.003878344
2-0273,pubchemPCH,OWUVHAAIHZKGDZ-UHFFFAOYSA-N,c1ccc2c(c1)c1ccc3c(c1cc2)c(Cl)c(cc3Cl)Cl,C18H9Cl3,r2scan,331.629,9,18,3,-2071.742341815242,-2071.5144474834,0.000200193,-2071.5741350123,5.945027207894,5.7879472902,0.0013950768,5.3720049914,0.2108347264,-5.5835,-2.647,2.9365,2.51555,272.85388,-0.93100 -0.29399 0.16208,0.014261,0.005124,0.003831
2-0273,pubchemPCH,OWUVHAAIHZKGDZ-UHFFFAOYSA-N,c1ccc2c(c1)c1ccc3c(c1cc2)c(Cl)c(cc3Cl)Cl,C18H9Cl3,d4tzvp,331.629,9,18,3,-2072.585668606719,-2072.3577742749003,0.000200193,-2072.4174618038,5.872889151825,5.7158092341,0.0013950768,5.2998669362,0.2108347264,-8.16,-0.24,7.92,2.44557,262.26962,-0.89353 -0.31337 0.17063,0.014261,0.005124,0.003831
2-0274,pubchemPCH,PAMRDONPUDWNII-UHFFFAOYSA-N,c1cc2cc3cc4c(Cl)ccc(c4cc3cc2cc1)Cl,C18H10Cl2,xtb2,297.184,10,18,2,-52.757469911317,-52.527259065522,0.000195671667,-52.585598573022,7.578257317465,7.41886232307,0.001293049729,7.033339545508,0.213790668395,-9.9123,-8.3112,1.601084026927,1.683,212.166096,0.662 -0.000 -0.000,0.01720657,0.005476324,0.004154177
2-0274,pubchemPCH,PAMRDONPUDWNII-UHFFFAOYSA-N,c1cc2cc3cc4c(Cl)ccc(c4cc3cc2cc1)Cl,C18H10Cl2,r2scan,297.184,10,18,2,-1612.163247000544,-1611.9278587449,0.0001894523,-1611.9843439426,5.982653995964,5.8180801545,0.0013889057,5.4039777902,0.2194960337,-4.9916,-3.2275,1.7641,1.52735,275.68201,0.60090 0.00001 0.00001,0.016911,0.005432,0.004111
2-0274,pubchemPCH,PAMRDONPUDWNII-UHFFFAOYSA-N,c1cc2cc3cc4c(Cl)ccc(c4cc3cc2cc1)Cl,C18H10Cl2,d4tzvp,297.184,10,18,2,-1612.963300297452,-1612.7279120419,0.0001894523,-1612.7843972396,5.897796804798,5.7332229633,0.0013889057,5.3191206,0.2194960337,-7.3808,-0.9495,6.4313,1.37986,266.59243,0.54287 -0.00001 0.00002,0.016911,0.005432,0.004111
2-0275,pubchemPCH,PBGZKJUCOZIICZ-UHFFFAOYSA-N,c1c2c(cc3c(c2)cc2c(c3)cccc2)cc2c1cc1c(c2)cc(cc1)Cl,C26H15Cl,xtb2,362.859,15,26,1,-67.881977469786,-67.548439430123,0.000227256854,-67.616196061055,10.871505220295,10.637109372592,0.00183593727,10.089724674143,0.31263903732,-9.3884,-8.4589,0.929495502577,2.649,279.87296,0.988 0.332 0.000,0.03353866,0.001786536,0.001696184
2-0275,pubchemPCH,PBGZKJUCOZIICZ-UHFFFAOYSA-N,c1c2c(cc3c(c2)cc2c(c3)cccc2)cc2c1cc1c(c2)cc(cc1)Cl,C26H15Cl,r2scan,362.859,15,26,1,-1459.784515376607,-1459.4436945885,0.0002199167,-1459.5092627573,8.573828533911,8.3321479257,0.0019697867,7.7448558682,0.3205568436,-4.4215,-3.5031,0.9184,2.43363,452.95645,0.89136 0.34953 -0.00002,0.033077,0.001776,0.001685
2-0275,pubchemPCH,PBGZKJUCOZIICZ-UHFFFAOYSA-N,c1c2c(cc3c(c2)cc2c(c3)cccc2)cc2c1cc1c(c2)cc(cc1)Cl,C26H15Cl,d4tzvp,362.859,15,26,1,-1460.857406306152,-1460.5165855181,0.0002199167,-1460.5821536868998,8.436573004114,8.1948923957,0.0019697867,7.6076003397,0.3205568436,-6.5907,-1.4213,5.1694,2.45253,425.09819,0.90000 0.34784 0.00002,0.033077,0.001776,0.001685
2-0276,pubchemPCH,PBKONEOXTCPAFI-UHFFFAOYSA-N,c1c(Cl)c(Cl)cc(c1)Cl,C6H3Cl3,xtb2,181.449,3,6,3,-28.029172717519,-27.950933242258,0.000146357359,-27.994569688738,2.641370792638,2.591457657937,0.000472202747,2.450670408664,0.069037002193,-11.0811,-7.2854,3.795690060545,1.265,104.774814,-0.279 0.412 -0.000,0.06244128,0.01986022,0.01506774
2-0276,pubchemPCH,PBKONEOXTCPAFI-UHFFFAOYSA-N,c1c(Cl)c(Cl)cc(c1)Cl,C6H3Cl3,r2scan,181.449,3,6,3,-1610.924583041117,-1610.8444093422,0.0001436806,-1610.8872477246,2.097491595095,2.0456436618,0.0005092034,1.8938246115,0.0712940165,-6.4424,-1.9071,4.5353,1.26751,105.16583,-0.27590 0.41539 -0.00007,0.060783,0.019642,0.014845
2-0276,pubchemPCH,PBKONEOXTCPAFI-UHFFFAOYSA-N,c1c(Cl)c(Cl)cc(c1)Cl,C6H3Cl3,d4tzvp,181.449,3,6,3,-1611.289681406317,-1611.2095077073998,0.0001436806,-1611.2523460898,2.080810608859,2.0289626756,0.0005092034,1.8771436256,0.0712940165,-9.4508,0.8515,10.3023,1.31848,103.47903,-0.29355 0.42767 -0.00007,0.060783,0.019642,0.014845
2-0277,pubchemPCH,PCEGQBZAYJMQAZ-UHFFFAOYSA-N,Clc1c2c(Cl)c(Cl)c(c3c2c2c(c1Cl)c(Cl)c(c(c2c(c3Cl)Cl)Cl)Cl)Cl,C16Cl10,xtb2,546.706,0,16,10,-79.82616058724,-79.696931487973,0.000260077927,-79.77447372189,6.30816729579,6.240311934403,0.001174596331,5.89010603756,0.104294611735,-10.9068,-9.0969,1.809938313423,0.171,290.287083,0.000 0.000 0.067,0.004516834,0.003287204,0.002002954
2-0277,pubchemPCH,PCEGQBZAYJMQAZ-UHFFFAOYSA-N,Clc1c2c(Cl)c(Cl)c(c3c2c2c(c1Cl)c(Cl)c(c(c2c(c3Cl)Cl)Cl)Cl)Cl,C16Cl10,r2scan,546.706,0,16,10,-5211.345875642214,-5211.214074242,0.0002504154,-5211.2887355949,4.890485361396,4.8200564532,0.0012625208,4.4436356637,0.1077003394,-6.0311,-3.5669,2.4642,0.15338,355.76804,-0.00006 -0.00023 0.06034,0.004383,0.003273,0.002081
2-0277,pubchemPCH,PCEGQBZAYJMQAZ-UHFFFAOYSA-N,Clc1c2c(Cl)c(Cl)c(c3c2c2c(c1Cl)c(Cl)c(c(c2c(c3Cl)Cl)Cl)Cl)Cl,C16Cl10,d4tzvp,546.706,0,16,10,-5212.355469816141,-5212.2236684159,0.0002504154,-5212.2983297688,4.867439595813,4.7970106881,0.0012625208,4.4205898986,0.1077003394,-8.6212,-1.3495,7.2717,0.12732,334.43196,-0.00010 -0.00033 0.05009,0.004383,0.003273,0.002081
2-0278,pubchemPCH,PFWQDZXCOHCAFO-UHFFFAOYSA-N,Clc1ccc2-c3c4c(-c2c1)cc1cccc2c1c4c(cc3)cc2,C22H11Cl,xtb2,310.783,11,22,1,-57.315732507838,-57.050837536734,0.000197631074,-57.109761241474,9.052376799551,8.867739793367,0.001486998438,8.424391207906,0.248164992558,-10.088,-8.0964,1.991570279833,2.878,234.517041,1.081 0.338 -0.000,0.01819149,0.005047561,0.003951222
2-0278,pubchemPCH,PFWQDZXCOHCAFO-UHFFFAOYSA-N,Clc1ccc2-c3c4c(-c2c1)cc1cccc2c1c4c(cc3)cc2,C22H11Cl,r2scan,310.783,11,22,1,-1305.019961945103,-1304.7499588039,0.0001937977,-1304.8077395832,7.127226194219,6.9374793891,0.0015944733,6.4620870325,0.2535367852,-5.2925,-2.9684,2.3241,2.69208,303.07461,1.01326 0.30831 -0.00003,0.018046,0.004999,0.003915
2-0278,pubchemPCH,PFWQDZXCOHCAFO-UHFFFAOYSA-N,Clc1ccc2-c3c4c(-c2c1)cc1cccc2c1c4c(cc3)cc2,C22H11Cl,d4tzvp,310.783,11,22,1,-1305.935269715261,-1305.6652665741,0.0001937977,-1305.7230473533998,7.025798353715,6.8360515485,0.0015944733,6.360659193,0.2535367852,-7.7181,-0.726,6.9921,2.59142,290.24672,0.97044 0.31253 -0.00003,0.018046,0.004999,0.003915
2-0279,pubchemPCH,PGCDNPCENWGYMA-UHFFFAOYSA-N,c1cc(Cl)c2c(c1Cl)c(Cl)c(c(c2Cl)Cl)Cl,C10H2Cl6,xtb2,334.844,2,10,6,-49.748217992607,-49.646903997882,0.000196522393,-49.705497149462,4.133137941319,4.074313457434,0.000768439463,3.845203231288,0.085326588398,-10.8602,-8.4955,2.364614041055,1.971,182.49846,0.776 0.000 0.000,0.01078444,0.01012685,0.005251151
2-0279,pubchemPCH,PGCDNPCENWGYMA-UHFFFAOYSA-N,c1cc(Cl)c2c(c1Cl)c(Cl)c(c(c2Cl)Cl)Cl,C10H2Cl6,r2scan,334.844,2,10,6,-3143.232024357128,-3143.1283287012,0.0001887253,-3143.1845971415,3.23136038236,3.1701533748,0.0008290227,2.9229801203,0.0883423112,-5.9749,-3.1308,2.8441,1.84887,202.19676,0.72739 0.00005 0.00000,0.010398,0.009974,0.005351
2-0279,pubchemPCH,PGCDNPCENWGYMA-UHFFFAOYSA-N,c1cc(Cl)c2c(c1Cl)c(Cl)c(c(c2Cl)Cl)Cl,C10H2Cl6,d4tzvp,334.844,2,10,6,-3143.86463990764,-3143.7609442517005,0.0001887253,-3143.8172126920003,3.21263833765,3.1514313303,0.0008290227,2.904258076,0.0883423112,-8.7325,-0.6948,8.0377,2.03492,194.5164,0.80058 0.00006 0.00000,0.010398,0.009974,0.005351
2-0280,pubchemPCH,PHLLVQHTHWKOBQ-UHFFFAOYSA-N,Clc1c(Cl)c(Cl)c(c2-c3c4c(-c12)cccc4ccc3)Cl,C16H6Cl4,xtb2,340.036,6,16,4,-55.55416015503,-55.375018258094,0.000203016294,-55.435547566252,6.57042108973,6.452652930674,0.001130231588,6.115674382038,0.161901653725,-10.7303,-8.4164,2.313826631498,4.019,214.624544,1.581 0.000 -0.000,0.01268952,0.006797689,0.004426463
2-0280,pubchemPCH,PHLLVQHTHWKOBQ-UHFFFAOYSA-N,Clc1c(Cl)c(Cl)c(c2-c3c4c(-c12)cccc4ccc3)Cl,C16H6Cl4,r2scan,340.036,6,16,4,-2453.917968964804,-2453.7350901194,0.000196046,-2453.793541227,5.162908300594,5.0414019474,0.0012154194,4.6790245068,0.1661539024,-5.9373,-3.1282,2.8091,3.58163,252.66835,1.40909 0.00005 -0.00003,0.012545,0.006725,0.004378
2-0280,pubchemPCH,PHLLVQHTHWKOBQ-UHFFFAOYSA-N,Clc1c(Cl)c(Cl)c(c2-c3c4c(-c12)cccc4ccc3)Cl,C16H6Cl4,d4tzvp,340.036,6,16,4,-2454.712613691622,-2454.5297348462,0.000196046,-2454.5881859538,5.108239244734,4.9867328916,0.0012154194,4.6243554516,0.1661539024,-8.5792,-0.769,7.8102,3.56352,242.62322,1.40197 0.00007 -0.00002,0.012545,0.006725,0.004378
2-0281,pubchemPCH,PHYGZNYBMFUDLF-UHFFFAOYSA-N,c1c(Cl)c(Cl)c2c(c1)cc(c1c2cccc1)Cl,C14H7Cl3,xtb2,281.569,7,14,3,-47.216412730543,-47.041829579985,0.000186879831,-47.097547801569,5.908308778998,5.79037830956,0.001023057399,5.485353745411,0.159779136376,-10.5815,-7.7798,2.801777026618,1.14,184.569659,-0.259 0.277 -0.241,0.02111245,0.008106082,0.005936952
2-0281,pubchemPCH,PHYGZNYBMFUDLF-UHFFFAOYSA-N,c1c(Cl)c(Cl)c2c(c1)cc(c1c2cccc1)Cl,C14H7Cl3,r2scan,281.569,7,14,3,-1918.13412631858,-1917.9554289169,0.0001811476,-1918.009438071,4.660219431674,4.5381735613,0.0010999936,4.2102103527,0.1644250219,-5.7813,-2.4623,3.319,1.04332,211.1748,-0.21687 0.22703 -0.26440,0.020766,0.007984,0.00586
2-0281,pubchemPCH,PHYGZNYBMFUDLF-UHFFFAOYSA-N,c1c(Cl)c(Cl)c2c(c1)cc(c1c2cccc1)Cl,C14H7Cl3,d4tzvp,281.569,7,14,3,-1918.818290809036,-1918.6395934073,0.0001811476,-1918.6936025614,4.606814239954,4.4847683695,0.0010999936,4.1568051616,0.1644250219,-8.4602,0.0076,8.4678,1.09286,204.71777,-0.19994 0.26666 -0.27162,0.020766,0.007984,0.00586
2-0282,pubchemPCH,PJBDSYJLNWFNJT-UHFFFAOYSA-N,c1c(Cl)cc2c(c1)c1c(Cl)ccc(c1cc2)Cl,C14H7Cl3,xtb2,281.569,7,14,3,-47.219470978863,-47.044878210237,0.000187551815,-47.100796783929,5.911367027318,5.793426939812,0.001022385415,5.488602727771,0.159779096478,-10.6717,-7.8075,2.864219795309,1.144,184.39695,-0.443 0.037 -0.070,0.02059972,0.006993996,0.005261772
2-0282,pubchemPCH,PJBDSYJLNWFNJT-UHFFFAOYSA-N,c1c(Cl)cc2c(c1)c1c(Cl)ccc(c1cc2)Cl,C14H7Cl3,r2scan,281.569,7,14,3,-1918.138786628703,-1917.9601578722,0.0001820634,-1918.0144400862,4.664879741797,4.5429025166,0.0010990778,4.2152123679,0.1642892075,-5.8987,-2.5361,3.3626,1.12412,213.32248,-0.43261 0.00674 -0.09162,0.020218,0.006899,0.005187
2-0282,pubchemPCH,PJBDSYJLNWFNJT-UHFFFAOYSA-N,c1c(Cl)cc2c(c1)c1c(Cl)ccc(c1cc2)Cl,C14H7Cl3,d4tzvp,281.569,7,14,3,-1918.821912081874,-1918.6432833254,0.0001820634,-1918.6975655394,4.610435512792,4.4884582876,0.0010990778,4.1607681396,0.1642892075,-8.5938,-0.0389,8.5549,1.24801,206.62267,-0.48257 0.00114 -0.09058,0.020218,0.006899,0.005187
2-0283,pubchemPCH,PJGAHUDXPHXFFF-UHFFFAOYSA-N,c1cc2ccc3c4c2c(c1)ccc4c(c(c3Cl)Cl)Cl,C16H7Cl3,xtb2,305.591,7,16,3,-51.527512123382,-51.339923915941,0.000190018091,-51.396577809796,6.632815429107,6.506600959546,0.001126325395,6.170787042268,0.171949364343,-10.36,-8.1312,2.228848795827,3.926,202.180207,1.545 0.000 -0.000,0.0170051,0.007739027,0.005318553
2-0283,pubchemPCH,PJGAHUDXPHXFFF-UHFFFAOYSA-N,c1cc2ccc3c4c2c(c1)ccc4c(c(c3Cl)Cl)Cl,C16H7Cl3,r2scan,305.591,7,16,3,-1994.363760763992,-1994.1724225212,0.0001850276,-1994.2275884888,5.22542170255,5.095455952,0.001209526,4.7348356371,0.1760152681,-5.5003,-2.8234,2.6769,3.55434,242.24508,1.39836 0.00008 0.00001,0.016738,0.007682,0.005265
2-0283,pubchemPCH,PJGAHUDXPHXFFF-UHFFFAOYSA-N,c1cc2ccc3c4c2c(c1)ccc4c(c(c3Cl)Cl)Cl,C16H7Cl3,d4tzvp,305.591,7,16,3,-1995.119083337527,-1994.9277450947,0.0001850276,-1994.9829110623,5.161984852879,5.0320191023,0.001209526,4.6713987881,0.1760152681,-7.9575,-0.5304,7.4271,3.69872,234.91853,1.45516 0.00006 -0.00001,0.016738,0.007682,0.005265
2-0284,pubchemPCH,PLKFKFQUMMEWPX-UHFFFAOYSA-N,c1c(Cl)c(Cl)cc2c1c1cc(Cl)c(cc1c1c2cc(Cl)c(c1)Cl)Cl,C18H6Cl6,xtb2,434.964,6,18,6,-68.968384104474,-68.770338157149,0.000236597168,-68.840879602693,7.433002026522,7.305771930597,0.001319741812,6.912290908435,0.176013760491,-11.0165,-8.0999,2.916580876479,0.0,261.733075,-0.000 -0.000 -0.000,0.004219362,0.004219362,0.002109681
2-0284,pubchemPCH,PLKFKFQUMMEWPX-UHFFFAOYSA-N,c1c(Cl)c(Cl)cc2c1c1cc(Cl)c(cc1c1c2cc(Cl)c(c1)Cl)Cl,C18H6Cl6,r2scan,434.964,6,18,6,-3450.496019708059,-3450.2935731681,0.0002338607,-3450.3632987402,5.848540292407,5.7169081665,0.0014121445,5.2958771138,0.1810721261,-6.2404,-2.7089,3.5315,0.0011,325.02729,0.00039 0.00018 0.00002,0.004189,0.004187,0.002094
2-0284,pubchemPCH,PLKFKFQUMMEWPX-UHFFFAOYSA-N,c1c(Cl)c(Cl)cc2c1c1cc(Cl)c(cc1c1c2cc(Cl)c(c1)Cl)Cl,C18H6Cl6,d4tzvp,434.964,6,18,6,-3451.448659930998,-3451.246213391,0.0002338607,-3451.3159389631,5.794052589384,5.6624204636,0.0014121445,5.2413894115,0.1810721261,-8.9152,-0.2764,8.6388,0.0012,306.62149,0.00044 0.00016 0.00002,0.004189,0.004187,0.002094
2-0285,pubchemPCH,PPDYVYBLKBBJCK-UHFFFAOYSA-N,c1ccc2c(c1)c(Cl)c1c(c2Cl)c2ccccc2c2c1cccc2,C22H12Cl2,xtb2,347.244,12,22,2,-62.34860993341,-62.069444065831,0.000213613759,-62.133133007969,9.209246326226,9.015059480327,0.001570796199,8.546726592413,0.259988164563,-10.1249,-7.8204,2.304460172377,0.382,252.167768,-0.150 -0.000 -0.000,0.009820672,0.00664772,0.004315317
2-0285,pubchemPCH,PPDYVYBLKBBJCK-UHFFFAOYSA-N,c1ccc2c(c1)c(Cl)c1c(c2Cl)c2ccccc2c2c1cccc2,C22H12Cl2,r2scan,347.244,12,22,2,-1765.76031907406,-1765.4746098505,0.0002078255,-1765.5365730088,7.256318349038,7.0555864225,0.0016846611,6.5533045538,0.2672525691,-5.3747,-2.7357,2.639,0.21193,306.45531,-0.08338 -0.00007 0.00019,0.009702,0.006545,0.004291
2-0285,pubchemPCH,PPDYVYBLKBBJCK-UHFFFAOYSA-N,c1ccc2c(c1)c(Cl)c1c(c2Cl)c2ccccc2c2c1cccc2,C22H12Cl2,d4tzvp,347.244,12,22,2,-1766.729642159097,-1766.4439329355,0.0002078255,-1766.5058960938,7.162835780631,6.9621038539,0.0016846611,6.4598219864,0.2672525691,-7.9911,-0.3615,7.6296,0.18816,294.81301,-0.07403 -0.00007 0.00023,0.009702,0.006545,0.004291
2-0286,pubchemPCH,PPHPFRUYUNRUFH-UHFFFAOYSA-N,c1ccc2c(c1)ccc1c2c(Cl)c(Cl)cc1,C14H8Cl2,xtb2,247.124,8,14,2,-43.165272539215,-42.982525401181,0.00017628744,-43.035085501294,5.946210958695,5.820116501781,0.001016745394,5.516973861822,0.169263188313,-10.4509,-7.5187,2.932158313711,2.876,172.307848,-0.655 0.908 0.163,0.02765427,0.01101033,0.007964518