id,subset,key,smiles,formula,level,mwt,nH,nC,nCl,E,H,S,G,dE,dH,dS,dG,zpe,homo,lumo,gap,Mu,alpha,tMu,rotA,rotB,rotC
2-0305,pubchemPCH,QMXUORARMLOYOI-UHFFFAOYSA-N,Clc1c(Cl)c(Cl)c2c(c1Cl)c1ccccc1cc2,C14H6Cl4,d4tzvp,316.014,6,14,4,-2378.426045059463,-2378.2558102438,0.0001902357,-2378.3125290095004,4.567292528141,4.4537092438,0.0011078173,4.1234133817,0.1547098839,-8.5596,-0.1406,8.419,3.15671,219.34475,-1.18813 0.35279 0.07903,0.015075,0.007607,0.005136
2-0306,pubchemPCH,QPPPJVKZUNYWNG-UHFFFAOYSA-N,c1c(Cl)cc2c(c1)c1ccc(cc1cc2)Cl,C14H8Cl2,xtb2,247.124,8,14,2,-43.177362750747,-42.994590193268,0.000175002982,-43.046767332357,5.958301170227,5.832181293868,0.001018029852,5.528655692885,0.169211613538,-10.6553,-7.6153,3.040000409839,0.058,172.087289,0.000 -0.023 0.000,0.05387498,0.005988247,0.00538923
2-0306,pubchemPCH,QPPPJVKZUNYWNG-UHFFFAOYSA-N,c1c(Cl)cc2c(c1)c1ccc(cc1cc2)Cl,C14H8Cl2,r2scan,247.124,8,14,2,-1458.57074372326,-1458.3841302824,0.0001708772,-1458.4350773074,4.713558439122,4.5835965296,0.0010933522,4.2576134576,0.1734204165,-5.9267,-2.3408,3.5859,0.01067,202.14341,-0.00000 0.00420 -0.00000,0.053392,0.005927,0.005335
2-0306,pubchemPCH,QPPPJVKZUNYWNG-UHFFFAOYSA-N,c1c(Cl)cc2c(c1)c1ccc(cc1cc2)Cl,C14H8Cl2,d4tzvp,247.124,8,14,2,-1459.217871581845,-1459.0312581409,0.0001708772,-1459.0822051659,4.653670975003,4.5237090653,0.0010933522,4.1977259941,0.1734204165,-8.6513,0.2057,8.857,0.01972,195.71543,0.00001 -0.00776 0.00000,0.053392,0.005927,0.005335
2-0307,pubchemPCH,QQMOZDBTEBCVHA-UHFFFAOYSA-N,c1c(Cl)c(Cl)c(c2c1c(Cl)c(Cl)c1c2c(Cl)c(c(c1)Cl)Cl)Cl,C14H2Cl8,xtb2,453.794,2,14,8,-67.442956927375,-67.310183691491,0.000236676129,-67.380748679301,5.689641120705,5.613520565941,0.001057783081,5.298142539713,0.111216416043,-11.0403,-8.6424,2.397854320344,1.228,247.388811,-0.000 0.483 0.000,0.006980211,0.004044679,0.002703742
2-0307,pubchemPCH,QQMOZDBTEBCVHA-UHFFFAOYSA-N,c1c(Cl)c(Cl)c(c2c1c(Cl)c(Cl)c1c2c(Cl)c(c(c1)Cl)Cl)Cl,C14H2Cl8,r2scan,453.794,2,14,8,-4216.008399593172,-4215.872117808,0.0002252027,-4215.9392619931,4.450884692425,4.3712544384,0.0011404975,4.0312149323,0.1156723876,-6.1757,-3.2019,2.9738,1.1647,293.77031,-0.00001 0.45822 0.00000,0.00691,0.003975,0.002689
2-0307,pubchemPCH,QQMOZDBTEBCVHA-UHFFFAOYSA-N,c1c(Cl)c(Cl)c(c2c1c(Cl)c(Cl)c1c2c(Cl)c(c(c1)Cl)Cl)Cl,C14H2Cl8,d4tzvp,453.794,2,14,8,-4216.872619454372,-4216.7363376692,0.0002252027,-4216.8034818543,4.42476307409,4.3451328204,0.0011404975,4.0050933145,0.1156723876,-8.889,-0.8205,8.0685,1.35119,277.4462,-0.00002 0.53159 0.00000,0.00691,0.003975,0.002689
2-0308,pubchemPCH,QSFBKFJYXUCTON-UHFFFAOYSA-N,c1cc(Cl)c2c(c1)c1c(Cl)cccc1c1c2cccc1Cl,C18H9Cl3,xtb2,331.629,9,18,3,-56.797510112131,-56.574759883354,0.000201706556,-56.634898692935,7.529255147254,7.377320769877,0.001303919236,6.988557248735,0.205217906298,-10.5964,-7.6289,2.967487292409,1.367,224.269671,0.000 0.000 0.538,0.009062623,0.009060421,0.00471016
2-0308,pubchemPCH,QSFBKFJYXUCTON-UHFFFAOYSA-N,c1cc(Cl)c2c(c1)c1c(Cl)cccc1c1c2cccc1Cl,C18H9Cl3,r2scan,331.629,9,18,3,-2071.719612781824,-2071.4916389052,0.0001991479,-2071.5510148399,5.922298174476,5.765138712,0.0013961219,5.348884819,0.2110417075,-5.8816,-2.476,3.4056,1.54559,258.0376,0.00041 0.00006 0.60807,0.008905,0.008901,0.004646
2-0308,pubchemPCH,QSFBKFJYXUCTON-UHFFFAOYSA-N,c1cc(Cl)c2c(c1)c1c(Cl)cccc1c1c2cccc1Cl,C18H9Cl3,d4tzvp,331.629,9,18,3,-2072.565245399594,-2072.337271523,0.0001991479,-2072.3966474577,5.8524659447,5.6953064822,0.0013961219,5.2790525901,0.2110417075,-8.5779,0.0107,8.5886,1.58992,249.7332,0.00062 0.00014 0.62551,0.008905,0.008901,0.004646
2-0309,pubchemPCH,QSWWVQQLTGBNDL-UHFFFAOYSA-N,c1cc(Cl)c2c3c1ccc1c3c(cc2)ccc1Cl,C16H8Cl2,xtb2,271.146,8,16,2,-47.484135312768,-47.288222858503,0.000178880234,-47.341556000299,6.678480989518,6.543942273133,0.001120558856,6.209847649457,0.181671169501,-10.1959,-7.9604,2.235461921505,0.0,189.503478,0.000 0.000 -0.000,0.02763969,0.007532947,0.005919611
2-0309,pubchemPCH,QSWWVQQLTGBNDL-UHFFFAOYSA-N,c1cc(Cl)c2c3c1ccc1c3c(cc2)ccc1Cl,C16H8Cl2,r2scan,271.146,8,16,2,-1534.791937001927,-1534.5919086338,0.000174855,-1534.6440416383,5.270319543253,5.1316636674,0.0012027868,4.7730526551,0.1861440109,-5.3827,-2.6992,2.6835,0.0,226.50097,-0.00000 0.00000 0.00000,0.027422,0.007438,0.005851
2-0309,pubchemPCH,QSWWVQQLTGBNDL-UHFFFAOYSA-N,c1cc(Cl)c2c3c1ccc1c3c(cc2)ccc1Cl,C16H8Cl2,d4tzvp,271.146,8,16,2,-1535.509750414073,-1535.309722046,0.000174855,-1535.3618550505,5.199927891665,5.0612720158,0.0012027868,4.7026610043,0.1861440109,-7.8355,-0.3968,7.4387,4E-05,220.61047,0.00001 -0.00000 0.00000,0.027422,0.007438,0.005851
2-0310,pubchemPCH,QULNTCBHJYWHSN-UHFFFAOYSA-N,Clc1cc2ccc3c4c2c(c1)c(Cl)c(c4ccc3)Cl,C16H7Cl3,xtb2,305.591,7,16,3,-51.531702441999,-51.344114996937,0.000192332627,-51.401458969703,6.637005747724,6.510792040542,0.001124010859,6.175668202175,0.171946834372,-10.4807,-8.1862,2.294514260592,3.736,201.97428,0.802 1.232 0.000,0.01308417,0.008664456,0.005212615
2-0310,pubchemPCH,QULNTCBHJYWHSN-UHFFFAOYSA-N,Clc1cc2ccc3c4c2c(c1)c(Cl)c(c4ccc3)Cl,C16H7Cl3,r2scan,305.591,7,16,3,-1994.368794146214,-1994.1774453918,0.0001879082,-1994.2334702195,5.230455084772,5.1004788226,0.0012066454,4.7407173678,0.1759965836,-5.6707,-2.8854,2.7853,3.42279,239.13524,0.77908 1.09835 0.00216,0.012953,0.008578,0.005161
2-0310,pubchemPCH,QULNTCBHJYWHSN-UHFFFAOYSA-N,Clc1cc2ccc3c4c2c(c1)c(Cl)c(c4ccc3)Cl,C16H7Cl3,d4tzvp,305.591,7,16,3,-1995.123574383745,-1994.9322256293,0.0001879082,-1994.9882504570005,5.166475899097,5.0364996369,0.0012066454,4.6767381828,0.1759965836,-8.1437,-0.5604,7.5833,3.48557,232.26795,0.78714 1.12288 0.00221,0.012953,0.008578,0.005161
2-0311,pubchemPCH,QVELVPOXGXUDBS-UHFFFAOYSA-N,c1cc(Cl)c2-c3c4c(-c2c1)cccc4cc(c3)Cl,C16H8Cl2,xtb2,271.146,8,16,2,-47.464016371912,-47.268448524171,0.000183616303,-47.323193724862,6.658362048662,6.524167938801,0.001115822787,6.19148537402,0.181091346231,-10.5669,-8.1655,2.401389061733,3.471,189.401425,-0.260 -1.340 -0.000,0.01518198,0.01077757,0.00630307
2-0311,pubchemPCH,QVELVPOXGXUDBS-UHFFFAOYSA-N,c1cc(Cl)c2-c3c4c(-c2c1)cccc4cc(c3)Cl,C16H8Cl2,r2scan,271.146,8,16,2,-1534.768169497203,-1534.5685432767,0.0001793889,-1534.6220280681,5.246552038529,5.1082983103,0.0011982529,4.7510390849,0.1855065194,-5.83,-2.995,2.835,3.303,220.63034,-0.25179 -1.27485 -0.00003,0.01505,0.01062,0.006226
2-0311,pubchemPCH,QVELVPOXGXUDBS-UHFFFAOYSA-N,c1cc(Cl)c2-c3c4c(-c2c1)cccc4cc(c3)Cl,C16H8Cl2,d4tzvp,271.146,8,16,2,-1535.489050798351,-1535.2894245779,0.0001793889,-1535.3429093693,5.179228275943,5.0409745477,0.0011982529,4.6837153231,0.1855065194,-8.4806,-0.5918,7.8888,3.38276,213.90053,-0.29664 -1.29737 -0.00004,0.01505,0.01062,0.006226
2-0312,pubchemPCH,QYEGXUUXWMKHHS-UHFFFAOYSA-N,Clc1cc(Cl)c2c(c1Cl)c(Cl)c(c(c2Cl)Cl)Cl,C10HCl7,xtb2,369.289,1,10,7,-53.792799950683,-53.699834451832,0.000208484008,-53.761993958792,4.08867752837,4.038201540359,0.000773382244,3.807617623932,0.075636591177,-10.9754,-8.6785,2.296931528847,0.857,195.179808,0.254 0.221 -0.022,0.01017464,0.007161466,0.004234258
2-0312,pubchemPCH,QYEGXUUXWMKHHS-UHFFFAOYSA-N,Clc1cc(Cl)c2c(c1Cl)c(Cl)c(c(c2Cl)Cl)Cl,C10HCl7,r2scan,369.289,1,10,7,-3602.807832589037,-3602.7126028036,0.0002004726,-3602.7723737001,3.190447011501,3.1377058744,0.0008341872,2.8889928104,0.0785956562,-6.0853,-3.2702,2.8151,0.7718,219.80401,0.22298 0.20068 -0.04696,0.009971,0.007001,0.004308
2-0312,pubchemPCH,QYEGXUUXWMKHHS-UHFFFAOYSA-N,Clc1cc(Cl)c2c(c1Cl)c(Cl)c(c(c2Cl)Cl)Cl,C10HCl7,d4tzvp,369.289,1,10,7,-3603.476654090508,-3603.3814243051,0.0002004726,-3603.4411952016,3.177376558278,3.1246354215,0.0008341872,2.8759223576,0.0785956562,-8.8473,-0.8486,7.9987,0.87843,210.08658,0.26288 0.21858 -0.05054,0.009971,0.007001,0.004308
2-0313,pubchemPCH,QYYUVUXSJZJCLQ-UHFFFAOYSA-N,c1cc(Cl)cc2c1ccc(c2Cl)Cl,C10H5Cl3,xtb2,231.509,5,10,3,-37.626811077891,-37.500487673438,0.00016711806,-37.550313923067,4.278858139678,4.195024246065,0.000747130608,3.972267254951,0.114316817543,-10.7587,-7.907,2.851669959078,2.888,144.619654,0.135 1.128 -0.000,0.03705915,0.0110069,0.008486369
2-0313,pubchemPCH,QYYUVUXSJZJCLQ-UHFFFAOYSA-N,c1cc(Cl)cc2c1ccc(c2Cl)Cl,C10H5Cl3,r2scan,231.509,5,10,3,-1764.535412401397,-1764.406243653,0.0001631071,-1764.4548740269,3.384913234933,3.298233135,0.0008039055,3.0585486112,0.1175505502,-6.0056,-2.5647,3.4409,2.85336,158.69198,0.10826 1.11734 -0.00001,0.036627,0.010866,0.00838
2-0313,pubchemPCH,QYYUVUXSJZJCLQ-UHFFFAOYSA-N,c1cc(Cl)cc2c1ccc(c2Cl)Cl,C10H5Cl3,d4tzvp,231.509,5,10,3,-1765.058927485733,-1764.9297587373,0.0001631071,-1764.9783891112,3.348753802463,3.2620737025,0.0008039055,3.0223891792,0.1175505502,-8.7844,-0.0188,8.7656,2.92724,154.79815,0.10671 1.14669 -0.00001,0.036627,0.010866,0.00838
2-0314,pubchemPCH,QZYNWJQFTJXIRN-UHFFFAOYSA-N,c1c(Cl)cc(c(c1Cl)Cl)Cl,C6H2Cl4,xtb2,215.894,2,6,4,-32.073874309285,-32.003968495893,0.000155590793,-32.050357890966,2.597030013379,2.555450540547,0.000479873709,2.412376194206,0.059366060922,-11.2542,-7.5734,3.680864605438,0.872,117.431962,-0.343 -0.000 0.000,0.02845245,0.01935503,0.01151908
2-0314,pubchemPCH,QZYNWJQFTJXIRN-UHFFFAOYSA-N,c1c(Cl)cc(c(c1Cl)Cl)Cl,C6H2Cl4,r2scan,215.894,2,6,4,-2070.500628275643,-2070.4288884812,0.0001517156,-2070.4741224825,2.056815226853,2.013401198,0.0005180802,1.8589355009,0.0616154945,-6.6101,-2.0967,4.5134,0.84635,119.56835,-0.33297 -0.00004 0.00000,0.027811,0.019175,0.01135
2-0314,pubchemPCH,QZYNWJQFTJXIRN-UHFFFAOYSA-N,c1c(Cl)cc(c(c1Cl)Cl)Cl,C6H2Cl4,d4tzvp,215.894,2,6,4,-2070.901971817329,-2070.8302320229,0.0001517156,-2070.8754660242003,2.045825057631,2.0024110289,0.0005180802,1.847945332,0.0616154945,-9.6188,0.6176,10.2364,0.92625,116.54536,-0.36441 -0.00005 0.00000,0.027811,0.019175,0.01135
2-0315,pubchemPCH,RDNBIOQMHSRVSV-UHFFFAOYSA-N,c1c(Cl)c(Cl)c2c(c1)c1ccccc1c(c2)Cl,C14H7Cl3,xtb2,281.569,7,14,3,-47.223725535396,-47.049089072436,0.000188002992,-47.105142164537,5.915621583851,5.797637802011,0.001021934238,5.492948108379,0.15972555656,-10.6728,-7.8052,2.867678156837,3.508,184.586594,-0.863 -1.077 -0.000,0.02084502,0.007700071,0.005622968
2-0315,pubchemPCH,RDNBIOQMHSRVSV-UHFFFAOYSA-N,c1c(Cl)c(Cl)c2c(c1)c1ccccc1c(c2)Cl,C14H7Cl3,r2scan,281.569,7,14,3,-1918.145949580952,-1917.9675481803,0.0001828975,-1918.0220790802,4.672042694046,4.5502928247,0.0010982437,4.2228513619,0.1639060353,-5.9313,-2.5101,3.4212,3.34747,212.33834,-0.81695 -1.03296 -0.00017,0.020489,0.00763,0.00556
2-0315,pubchemPCH,RDNBIOQMHSRVSV-UHFFFAOYSA-N,c1c(Cl)c(Cl)c2c(c1)c1ccccc1c(c2)Cl,C14H7Cl3,d4tzvp,281.569,7,14,3,-1918.83034605683,-1918.6519446561,0.0001828975,-1918.706475556,4.618869487748,4.4971196183,0.0010982437,4.1696781562,0.1639060353,-8.6254,-0.015,8.6104,3.37277,205.85214,-0.80698 -1.05334 -0.00017,0.020489,0.00763,0.00556
2-0316,pubchemPCH,RELMFMZEBKVZJC-UHFFFAOYSA-N,c1cc(Cl)c(c(c1)Cl)Cl,C6H3Cl3,xtb2,181.449,3,6,3,-28.027154234533,-27.948887941538,0.000143822515,-27.991768624482,2.639352309652,2.589412357217,0.000474737591,2.447869344408,0.069056705022,-11.1481,-7.2177,3.930437912688,2.564,104.863529,0.000 1.009 -0.000,0.05000455,0.02844364,0.01813058
2-0316,pubchemPCH,RELMFMZEBKVZJC-UHFFFAOYSA-N,c1cc(Cl)c(c(c1)Cl)Cl,C6H3Cl3,r2scan,181.449,3,6,3,-1610.921403414659,-1610.8412153365,0.0001406312,-1610.8831445179,2.094311968637,2.0424496561,0.0005122528,1.8897214048,0.0713450369,-6.629,-1.7794,4.8496,2.54091,103.55139,0.00008 0.99965 -0.00004,0.049581,0.02778,0.017804
2-0316,pubchemPCH,RELMFMZEBKVZJC-UHFFFAOYSA-N,c1cc(Cl)c(c(c1)Cl)Cl,C6H3Cl3,d4tzvp,181.449,3,6,3,-1611.287278631188,-1611.207090553,0.0001406312,-1611.2490197344,2.07840783373,2.0265455212,0.0005122528,1.8738172702,0.0713450369,-9.6744,0.9307,10.6051,2.63945,101.97314,0.00008 1.03842 -0.00004,0.049581,0.02778,0.017804
2-0317,pubchemPCH,RFFLAFLAYFXFSW-UHFFFAOYSA-N,c1cccc(c1Cl)Cl,C6H4Cl2,xtb2,147.004,4,6,2,-23.980663050375,-23.894092380667,0.000132336523,-23.933548514938,2.681903496519,2.623659167371,0.000469319187,2.48373165155,0.078653959488,-10.9437,-6.881,4.062705715644,2.566,92.336762,-1.010 -0.000 0.000,0.06517711,0.04756586,0.02749799
2-0317,pubchemPCH,RFFLAFLAYFXFSW-UHFFFAOYSA-N,c1cccc(c1Cl)Cl,C6H4Cl2,r2scan,147.004,4,6,2,-1151.344308033039,-1151.2556885216,0.0001304437,-1151.294580304,2.133938189785,2.073644444,0.0005055285,1.9229210594,0.0809841683,-6.4106,-1.5723,4.8383,2.54365,89.70965,-1.00073 -0.00023 0.00012,0.06322,0.047241,0.027037
2-0317,pubchemPCH,RFFLAFLAYFXFSW-UHFFFAOYSA-N,c1cccc(c1Cl)Cl,C6H4Cl2,d4tzvp,147.004,4,6,2,-1151.674129011987,-1151.5855095006,0.0001304437,-1151.624401283,2.112534176769,2.052240431,0.0005055285,1.9015170468,0.0809841683,-9.4471,1.1846,10.6317,2.60639,89.32886,-1.02541 -0.00024 0.00012,0.06322,0.047241,0.027037
2-0318,pubchemPCH,RGAJKWOJVSKKBL-UHFFFAOYSA-N,Clc1ccc2c(c1)ccc1c2cc(Cl)cc1,C14H8Cl2,xtb2,247.124,8,14,2,-43.177457551109,-42.994697506562,0.000177646248,-43.047662735463,5.958395970589,5.832288607162,0.001015386586,5.529551095991,0.1692104433,-10.6201,-7.5922,3.027829034543,1.77,172.088761,-0.247 0.651 0.000,0.03385739,0.00699301,0.005795906
2-0318,pubchemPCH,RGAJKWOJVSKKBL-UHFFFAOYSA-N,Clc1ccc2c(c1)ccc1c2cc(Cl)cc1,C14H8Cl2,r2scan,247.124,8,14,2,-1458.570867341919,-1458.3842277271,0.000173224,-1458.4358744585,4.713682057781,4.5836939743,0.0010910054,4.2584106087,0.1734629128,-5.852,-2.2944,3.5576,1.70952,200.49502,-0.24720 0.62549 -0.00000,0.033479,0.006928,0.00574
2-0318,pubchemPCH,RGAJKWOJVSKKBL-UHFFFAOYSA-N,Clc1ccc2c(c1)ccc1c2cc(Cl)cc1,C14H8Cl2,d4tzvp,247.124,8,14,2,-1459.218031540845,-1459.031391926,0.000173224,-1459.0830386573998,4.653830934003,4.5238428504,0.0010910054,4.1985594856,0.1734629128,-8.5326,0.2345,8.7671,1.76235,194.4363,-0.25026 0.64660 0.00000,0.033479,0.006928,0.00574
2-0319,pubchemPCH,RHFXCLQDSRIILM-UHFFFAOYSA-N,c1ccc2c(c1)c1cccc3c1c1c2c(Cl)c(Cl)cc1cc3,C20H10Cl2,xtb2,321.206,10,20,2,-57.069917377578,-56.825796170587,0.000201312903,-56.885817612708,8.304112040996,8.135527742165,0.001393814749,7.719961873824,0.226997442017,-10.2781,-7.7964,2.481740577685,3.273,229.666139,-1.241 -0.241 0.245,0.01170011,0.007895566,0.004816431
2-0319,pubchemPCH,RHFXCLQDSRIILM-UHFFFAOYSA-N,c1ccc2c(c1)c1cccc3c1c1c2c(Cl)c(Cl)cc1cc3,C20H10Cl2,r2scan,321.206,10,20,2,-1688.386041957371,-1688.1366530528,0.0001950912,-1688.1948194886,6.541016778255,6.3671632488,0.0014966792,5.9209282028,0.2328009368,-5.4851,-2.5867,2.8984,2.91696,273.77544,-1.09870 -0.20316 0.26183,0.011555,0.007803,0.004765
2-0319,pubchemPCH,RHFXCLQDSRIILM-UHFFFAOYSA-N,c1ccc2c(c1)c1cccc3c1c1c2c(Cl)c(Cl)cc1cc3,C20H10Cl2,d4tzvp,321.206,10,20,2,-1689.267492581726,-1689.0181036771,0.0001950912,-1689.0762701129,6.456367173506,6.2825136439,0.0014966792,5.8362785989,0.2328009368,-7.992,-0.2305,7.7615,3.00858,264.86847,-1.12629 -0.24324 0.27078,0.011555,0.007803,0.004765
2-0320,pubchemPCH,RHWUPHKFXFMWLY-UHFFFAOYSA-N,Clc1c(Cl)cc2c(c1Cl)c1ccccc1c1c2cccc1,C18H9Cl3,xtb2,331.629,9,18,3,-56.807974143904,-56.585130537436,0.000208236779,-56.647216333209,7.539719179027,7.387691423959,0.001297389013,7.000874889009,0.205058410618,-10.6654,-7.5822,3.083273062861,3.802,224.771694,1.464 -0.241 -0.192,0.01181247,0.006724676,0.004414135
2-0320,pubchemPCH,RHWUPHKFXFMWLY-UHFFFAOYSA-N,Clc1c(Cl)cc2c(c1Cl)c1ccccc1c1c2cccc1,C18H9Cl3,r2scan,331.629,9,18,3,-2071.739372385275,-2071.5114254705,0.0002006871,-2071.5712603282,5.942057777927,5.7849252773,0.0013945827,5.3691303073,0.2108106105,-5.9152,-2.3653,3.5499,3.32547,262.24779,1.27944 -0.19542 -0.19116,0.011649,0.006641,0.004373
2-0320,pubchemPCH,RHWUPHKFXFMWLY-UHFFFAOYSA-N,Clc1c(Cl)cc2c(c1Cl)c1ccccc1c1c2cccc1,C18H9Cl3,d4tzvp,331.629,9,18,3,-2072.58640125684,-2072.358454342,0.0002006871,-2072.4182891997,5.873621801946,5.7164893012,0.0013945827,5.3006943321,0.2108106105,-8.5839,0.1315,8.7154,3.40605,252.75686,1.30743 -0.21457 -0.20060,0.011649,0.006641,0.004373
2-0321,pubchemPCH,RICHXUPGHCMGBL-UHFFFAOYSA-N,c1cc(Cl)c2c3c1c(Cl)cc1c3c(c(c2)Cl)ccc1Cl,C16H6Cl4,xtb2,340.036,6,16,4,-55.585765593781,-55.406275759094,0.000200914256,-55.466178344508,6.602026528481,6.483910431674,0.001132333626,6.146305160294,0.162515655447,-10.509,-8.3694,2.139596169622,0.0,214.178258,0.000 0.000 -0.000,0.00950811,0.007272004,0.004120533
2-0321,pubchemPCH,RICHXUPGHCMGBL-UHFFFAOYSA-N,c1cc(Cl)c2c3c1c(Cl)cc1c3c(c(c2)Cl)ccc1Cl,C16H6Cl4,r2scan,340.036,6,16,4,-2453.953540256958,-2453.7707291392,0.0001985828,-2453.8299366105,5.198479592748,5.0770409672,0.0012128826,4.7154198903,0.1658109113,-5.6681,-3.0648,2.6033,0.00026,257.75528,0.00010 0.00004 0.00000,0.00941,0.007174,0.004071
2-0321,pubchemPCH,RICHXUPGHCMGBL-UHFFFAOYSA-N,c1cc(Cl)c2c3c1c(Cl)cc1c3c(c(c2)Cl)ccc1Cl,C16H6Cl4,d4tzvp,340.036,6,16,4,-2454.742767701795,-2454.559956584,0.0001985828,-2454.6191640553,5.138393254907,5.0169546294,0.0012128826,4.6553335531,0.1658109113,-8.1285,-0.791,7.3375,1E-05,249.02999,-0.00000 -0.00000 0.00000,0.00941,0.007174,0.004071
2-0322,pubchemPCH,RKMRGVZMBBWFRG-UHFFFAOYSA-N,c1c2c(cc3c1cc1c(c3)c(Cl)ccc1Cl)cc1c(c2)c(Cl)ccc1Cl,C22H10Cl4,xtb2,416.134,10,22,4,-70.448920054672,-70.187333096941,0.000234402497,-70.257220201446,9.131471705438,8.954863769387,0.001583816253,8.482648952518,0.239620878177,-9.9683,-8.7704,1.197824763364,0.0,276.60232,0.000 0.000 0.000,0.009753602,0.002205579,0.001798814
2-0322,pubchemPCH,RKMRGVZMBBWFRG-UHFFFAOYSA-N,c1c2c(cc3c1cc1c(c3)c(Cl)ccc1Cl)cc1c(c2)c(Cl)ccc1Cl,C22H10Cl4,r2scan,416.134,10,22,4,-2684.927416650726,-2684.6599867918,0.0002259717,-2684.7273602621,7.189972720168,7.0075201582,0.0017003385,6.5005640701,0.2461259237,-4.9657,-3.7094,1.2563,1E-05,391.59584,0.00000 -0.00001 -0.00000,0.009581,0.002187,0.001781
2-0322,pubchemPCH,RKMRGVZMBBWFRG-UHFFFAOYSA-N,c1c2c(cc3c1cc1c(c3)c(Cl)ccc1Cl)cc1c(c2)c(Cl)ccc1Cl,C22H10Cl4,d4tzvp,416.134,10,22,4,-2685.95321254088,-2685.685782682,0.0002259717,-2685.7531561523,7.091854237934,6.909401676,0.0017003385,6.4024455889,0.2461259237,-7.2315,-1.5371,5.6944,0.00011,372.20901,-0.00001 0.00000 0.00004,0.009581,0.002187,0.001781
2-0323,pubchemPCH,RLTTZFDRZKJVKJ-UHFFFAOYSA-N,c1cc(Cl)c2c(c1Cl)cc(cc2)Cl,C10H5Cl3,xtb2,231.509,5,10,3,-37.628784487868,-37.50239877001,0.000167583558,-37.55236380785,4.280831549655,4.196935342637,0.00074666511,3.974317139734,0.114395176446,-10.731,-7.9348,2.796180698242,1.215,144.516813,0.447 0.170 -0.000,0.02209643,0.01423741,0.008658481
2-0323,pubchemPCH,RLTTZFDRZKJVKJ-UHFFFAOYSA-N,c1cc(Cl)c2c(c1Cl)cc(cc2)Cl,C10H5Cl3,r2scan,231.509,5,10,3,-1764.537826989113,-1764.4085252063,0.0001635743,-1764.4572948701,3.387327822649,3.3005146883,0.0008034383,3.0609694544,0.1176763643,-5.9457,-2.6404,3.3053,1.25657,157.22691,0.45553 0.19205 -0.00001,0.021762,0.014044,0.008535
2-0323,pubchemPCH,RLTTZFDRZKJVKJ-UHFFFAOYSA-N,c1cc(Cl)c2c(c1Cl)cc(cc2)Cl,C10H5Cl3,d4tzvp,231.509,5,10,3,-1765.060811509147,-1764.9315097263,0.0001635743,-1764.9802793901,3.350637825877,3.2638246915,0.0008034383,3.0242794581,0.1176763643,-8.7147,-0.1041,8.6106,1.34207,153.92594,0.49499 0.18375 -0.00000,0.021762,0.014044,0.008535
2-0324,pubchemPCH,ROUOFHKSUKZEJY-UHFFFAOYSA-N,Clc1ccc2c(c1)cc1c(c2Cl)cccc1,C14H8Cl2,xtb2,247.124,8,14,2,-43.16910007766,-42.986593634583,0.000177362432,-43.039474243634,5.95003849714,5.824184735183,0.001015670402,5.521362604162,0.168940307613,-10.2019,-8.0873,2.114617916159,2.099,172.154677,-0.737 0.372 -0.000,0.0295724,0.008559459,0.006638117
2-0324,pubchemPCH,ROUOFHKSUKZEJY-UHFFFAOYSA-N,Clc1ccc2c(c1)cc1c(c2Cl)cccc1,C14H8Cl2,r2scan,247.124,8,14,2,-1458.560807200589,-1458.3742033689,0.0001726728,-1458.425685761,4.703621916451,4.5736696161,0.0010915566,4.2482219112,0.1734574289,-5.343,-2.9217,2.4213,1.95073,205.69731,-0.69505 0.32541 -0.00001,0.02902,0.008488,0.006567
2-0324,pubchemPCH,ROUOFHKSUKZEJY-UHFFFAOYSA-N,Clc1ccc2c(c1)cc1c(c2Cl)cccc1,C14H8Cl2,d4tzvp,247.124,8,14,2,-1459.205285701516,-1459.0186818698,0.0001726728,-1459.0701642619,4.641085094674,4.5111327942,0.0010915566,4.1856850901,0.1734574289,-7.8925,-0.5299,7.3626,2.0086,200.55298,-0.70971 0.34751 -0.00001,0.02902,0.008488,0.006567