id,subset,key,smiles,formula,level,mwt,nH,nC,nCl,E,H,S,G,dE,dH,dS,dG,zpe,homo,lumo,gap,Mu,alpha,tMu,rotA,rotB,rotC
1-0039,pubchemPAH,IQHSIXFTHHMAIW-UHFFFAOYSA-N,c1ccc2c(c1)cc1c(c2)cc2c(c1)c1c(cc2)ccc2c1cccc2,C26H16,r2scan,328.414,16,26,0,-1000.217514606772,-999.8666218119,0.0002078,-999.9285773767,8.623549366844,8.3717967519,0.0019649916,7.7859343561,0.3322742613,-4.7195,-2.8901,1.8294,0.07214,365.89212,0.02837 0.00006 0.00078,0.015446,0.003763,0.003072
1-0039,pubchemPAH,IQHSIXFTHHMAIW-UHFFFAOYSA-N,c1ccc2c(c1)cc1c(c2)cc2c(c1)c1c(cc2)ccc2c1cccc2,C26H16,d4tzvp,328.414,16,26,0,-1001.265739493159,-1000.9148466983,0.0002078,-1000.9768022631,8.492182153361,8.2404295381,0.0019649916,7.6545671439,0.3322742613,-7.0834,-0.6219,6.4615,0.06275,347.42032,0.02360 -0.00651 0.00322,0.015446,0.003763,0.003072
1-0040,pubchemPAH,IXYFQUXROKOLNV-UHFFFAOYSA-N,c1ccc2c(c1)c1c(c3c2c2c3cccc2)c2c1cccc2,C22H12,xtb2,276.338,12,22,0,-53.101330525379,-52.829935083501,0.000195161035,-52.88812234619,8.927017188117,8.735879711159,0.001472564081,8.296834729308,0.254872650623,-9.5252,-7.8659,1.659287971004,0.153,217.071007,0.000 0.060 0.000,0.01336017,0.008182462,0.005074546
1-0040,pubchemPAH,IXYFQUXROKOLNV-UHFFFAOYSA-N,c1ccc2c(c1)c1c(c3c2c2c3cccc2)c2c1cccc2,C22H12,r2scan,276.338,12,22,0,-845.25612329588,-844.9799365329,0.0001908661,-845.0368432573,6.980109147764,6.7841787209,0.0015804931,6.3129545751,0.2599025113,-4.659,-2.8535,1.8055,0.18183,299.22452,0.00004 0.07153 0.00001,0.013229,0.008086,0.005019
1-0040,pubchemPAH,IXYFQUXROKOLNV-UHFFFAOYSA-N,c1ccc2c(c1)c1c(c3c2c2c3cccc2)c2c1cccc2,C22H12,d4tzvp,276.338,12,22,0,-846.135193628729,-845.8590068656999,0.0001908661,-845.9159135901,6.872998229423,6.6770678023,0.0015804931,6.2058436577,0.2599025113,-7.086,-0.4455,6.6405,0.18705,281.96464,0.00000 0.07359 0.00001,0.013229,0.008086,0.005019
1-0041,pubchemPAH,JBHIIKGZANVCJJ-UHFFFAOYSA-N,c1ccc2c(c1)cc1c(c2)c2ccccc2c2c1c1ccccc1cc2,C26H16,xtb2,328.414,16,26,0,-63.850193204287,-63.506600578345,0.000215831637,-63.570950780956,10.928763325821,10.684312891839,0.001830458091,10.13856181073,0.324213228952,-9.807,-7.4943,2.312639060662,0.067,267.708359,0.017 -0.019 0.006,0.008488606,0.006674977,0.003860368
1-0041,pubchemPAH,JBHIIKGZANVCJJ-UHFFFAOYSA-N,c1ccc2c(c1)cc1c(c2)c2ccccc2c2c1c1ccccc1cc2,C26H16,r2scan,328.414,16,26,0,-1000.22522518112,-999.8736398754,0.0002079542,-999.9356414256,8.631259941192,8.3788148154,0.0019648374,7.792998405,0.3329182892,-5.0601,-2.4682,2.5919,0.10438,338.96866,0.02933 -0.02212 0.01835,0.008433,0.00657,0.003802
1-0041,pubchemPAH,JBHIIKGZANVCJJ-UHFFFAOYSA-N,c1ccc2c(c1)cc1c(c2)c2ccccc2c2c1c1ccccc1cc2,C26H16,d4tzvp,328.414,16,26,0,-1001.280114427948,-1000.9285291222,0.0002079542,-1000.9905306724,8.50655708815,8.254111962,0.0019648374,7.6682955532,0.3329182892,-7.5367,-0.0879,7.4488,0.09185,324.96615,0.02579 -0.02108 0.01401,0.008433,0.00657,0.003802
1-0042,pubchemPAH,JCHTUDMXWBJCEO-UHFFFAOYSA-N,c1ccc2c(c1)cc1c(c2)ccc2c1c1ccccc1c1c2cccc1,C26H16,xtb2,328.414,16,26,0,-63.848228577669,-63.504700595461,0.000215601268,-63.568982113634,10.926798699203,10.682412908955,0.00183068846,10.136593143408,0.324145040878,-9.7133,-7.6302,2.083122093259,0.058,267.708478,0.019 0.012 0.004,0.01431164,0.00457029,0.003615005
1-0042,pubchemPAH,JCHTUDMXWBJCEO-UHFFFAOYSA-N,c1ccc2c(c1)cc1c(c2)ccc2c1c1ccccc1c1c2cccc1,C26H16,r2scan,328.414,16,26,0,-1000.223310247777,-999.8717878559,0.0002080758,-999.9338256574,8.629345007849,8.3769627959,0.0019647158,7.7911826368,0.3328433964,-4.9522,-2.5837,2.3685,0.07183,343.95129,0.01076 0.01386 0.02215,0.014184,0.004512,0.003559
1-0042,pubchemPAH,JCHTUDMXWBJCEO-UHFFFAOYSA-N,c1ccc2c(c1)cc1c(c2)ccc2c1c1ccccc1c1c2cccc1,C26H16,d4tzvp,328.414,16,26,0,-1001.277238812366,-1000.9257164205,0.0002080758,-1000.987754222,8.503681472568,8.2512992603,0.0019647158,7.6655191028,0.3328433964,-7.3859,-0.2406,7.1453,0.0742,329.40837,0.00831 0.01945 0.02012,0.014184,0.004512,0.003559
1-0043,pubchemPAH,JDPBLCQVGZLACA-UHFFFAOYSA-N,c1ccc2c(c1)cc1c3c2c2cccc4c2c(c3ccc1)ccc4,C24H14,xtb2,302.376,14,24,0,-58.552553550109,-58.244349350341,0.000199620494,-58.30386620075,10.004681942245,9.786177820917,0.001657386928,9.292027907196,0.290945834697,-9.4504,-7.9774,1.472934162596,0.076,245.102907,0.026 -0.012 -0.008,0.01307569,0.007898852,0.005080053
1-0043,pubchemPAH,JDPBLCQVGZLACA-UHFFFAOYSA-N,c1ccc2c(c1)cc1c3c2c2cccc4c2c(c3ccc1)ccc4,C24H14,r2scan,302.376,14,24,0,-922.824689132697,-922.5093080116,0.000193371,-922.56696159,7.889699438675,7.6640165756,0.0017787044,7.1336957386,0.2987622966,-4.6088,-2.9604,1.6484,0.0994,316.66666,0.03489 -0.00708 -0.01619,0.012999,0.007781,0.005016
1-0043,pubchemPAH,JDPBLCQVGZLACA-UHFFFAOYSA-N,c1ccc2c(c1)cc1c3c2c2cccc4c2c(c3ccc1)ccc4,C24H14,d4tzvp,302.376,14,24,0,-923.787597358916,-923.4722162378,0.000193371,-923.5298698162,7.769720989364,7.544038126,0.0017787044,7.0137172904,0.2987622966,-6.8771,-0.7788,6.0983,0.0787,305.96931,0.02866 0.00189 -0.01156,0.012999,0.007781,0.005016
1-0044,pubchemPAH,JHOWUOKQHJHGMU-UHFFFAOYSA-N,c1ccc2-c3c4c(-c2c1)c1ccccc1cc4c1c(c3)cccc1,C24H14,xtb2,302.376,14,24,0,-58.550086638352,-58.241958507538,0.000204228547,-58.302849248857,10.002215030488,9.783786978114,0.001652778875,9.291010955303,0.290452129442,-9.886,-7.9018,1.984180053132,0.598,245.043563,-0.208 0.109 0.000,0.01092696,0.007663433,0.004504371
1-0044,pubchemPAH,JHOWUOKQHJHGMU-UHFFFAOYSA-N,c1ccc2-c3c4c(-c2c1)c1ccccc1cc4c1c(c3)cccc1,C24H14,r2scan,302.376,14,24,0,-922.824293257907,-922.5099257344,0.0001987381,-922.5691794987,7.889303563885,7.6646342984,0.0017733373,7.1359136473,0.297051669,-5.1663,-2.8714,2.2949,0.70664,315.86646,-0.24195 0.13692 0.00000,0.010835,0.007599,0.004467
1-0044,pubchemPAH,JHOWUOKQHJHGMU-UHFFFAOYSA-N,c1ccc2-c3c4c(-c2c1)c1ccccc1cc4c1c(c3)cccc1,C24H14,d4tzvp,302.376,14,24,0,-923.79236439953,-923.477996876,0.0001987381,-923.5372506403,7.774488029978,7.5498187642,0.0017733373,7.0210981145,0.297051669,-7.6473,-0.5867,7.0606,0.63138,303.8609,-0.22473 0.10583 0.00001,0.010835,0.007599,0.004467
1-0045,pubchemPAH,JKKWIMTZWPKTTI-UHFFFAOYSA-N,c1ccc2c(c1)cc1-c3cccc4c3c(-c1c2)cc1c4cccc1,C24H14,xtb2,302.376,14,24,0,-58.555885469526,-58.24777339418,0.000202962784,-58.308286748266,10.008013861662,9.789601864756,0.001654044638,9.296448454712,0.290568744531,-9.974,-7.5684,2.405615863189,0.294,245.052639,-0.113 0.026 -0.000,0.02032064,0.004678708,0.003803073
1-0045,pubchemPAH,JKKWIMTZWPKTTI-UHFFFAOYSA-N,c1ccc2c(c1)cc1-c3cccc4c3c(-c1c2)cc1c4cccc1,C24H14,r2scan,302.376,14,24,0,-922.8305476093,-922.5162393588,0.0001977869,-922.5752095159,7.895557915278,7.6709479228,0.0017742885,7.1419436645,0.2971622087,-5.2149,-2.5044,2.7105,0.35767,326.07245,-0.13884 0.02289 0.00000,0.020137,0.004639,0.00377
1-0045,pubchemPAH,JKKWIMTZWPKTTI-UHFFFAOYSA-N,c1ccc2c(c1)cc1-c3cccc4c3c(-c1c2)cc1c4cccc1,C24H14,d4tzvp,302.376,14,24,0,-923.79875557476,-923.4844473243,0.0001977869,-923.5434174814,7.780879205208,7.5562692125,0.0017742885,7.0272649556,0.2971622087,-7.7247,-0.156,7.5687,0.30101,309.36088,-0.11581 0.02473 -0.00001,0.020137,0.004639,0.00377
1-0046,pubchemPAH,JKPCLJPYZMKPHM-UHFFFAOYSA-N,c1ccc2c(c1)ccc1c2c2c(cc1)ccc1c2cccc1,C22H14,xtb2,278.354,14,22,0,-54.253712206154,-53.958547557267,0.000192021385,-54.015798733128,9.29243334102,9.082247713813,0.001558579781,8.617557150944,0.278773349892,-10.0133,-7.2443,2.768963397723,0.137,227.756847,0.000 0.054 0.000,0.01505546,0.009685409,0.006364239
1-0046,pubchemPAH,JKPCLJPYZMKPHM-UHFFFAOYSA-N,c1ccc2c(c1)ccc1c2c2c(cc1)ccc1c2cccc1,C22H14,r2scan,278.354,14,22,0,-846.612436437369,-846.3102447661,0.0001853505,-846.3655070102,7.341878917883,7.1246645437,0.0016733125,6.6257662922,0.2864667196,-5.3203,-2.1675,3.1528,0.05568,267.57634,0.00000 0.02190 0.00000,0.014993,0.009433,0.00624
1-0046,pubchemPAH,JKPCLJPYZMKPHM-UHFFFAOYSA-N,c1ccc2c(c1)ccc1c2c2c(cc1)ccc1c2cccc1,C22H14,d4tzvp,278.354,14,22,0,-847.50701716385,-847.2048254926,0.0001853505,-847.2600877366999,7.234762709864,7.0175483354,0.0016733125,6.5186500853,0.2864667196,-7.8814,0.2812,8.1626,0.09711,260.22488,0.00000 0.03821 0.00001,0.014993,0.009433,0.00624
1-0047,pubchemPAH,JNTHRSHGARDABO-UHFFFAOYSA-N,c1ccc2c(c1)c1c3ccccc3c3c4c1c(c2)ccc4ccc3,C24H14,xtb2,302.376,14,24,0,-58.562404614625,-58.253809165151,0.000199696254,-58.313348603307,10.014533006761,9.795637635727,0.001657311168,9.301510309753,0.291354342382,-9.7475,-7.6258,2.121645883899,0.05,245.100318,0.009 0.001 -0.018,0.01231509,0.008323041,0.005111457
1-0047,pubchemPAH,JNTHRSHGARDABO-UHFFFAOYSA-N,c1ccc2c(c1)c1c3ccccc3c3c4c1c(c2)ccc4ccc3,C24H14,r2scan,302.376,14,24,0,-922.837237458413,-922.5215750151,0.0001934978,-922.5792663888,7.902247764391,7.6762835791,0.0017785776,7.1460005374,0.299031568,-4.9898,-2.5341,2.4557,0.0697,305.65764,0.01876 0.00822 -0.01823,0.012194,0.008232,0.005042
1-0047,pubchemPAH,JNTHRSHGARDABO-UHFFFAOYSA-N,c1ccc2c(c1)c1c3ccccc3c3c4c1c(c2)ccc4ccc3,C24H14,d4tzvp,302.376,14,24,0,-923.804276149456,-923.4886137062,0.0001934978,-923.5463050799,7.786399779904,7.5604355944,0.0017785776,7.0301525541,0.299031568,-7.3811,-0.2388,7.1423,0.06546,295.965,0.02003 -0.00426 -0.01562,0.012194,0.008232,0.005042
1-0048,pubchemPAH,JQQSUOJIMKJQHS-UHFFFAOYSA-N,c1c2c(cc3c(c2)cccc3)c2c(c1)cc1c(c2)cccc1,C22H14,xtb2,278.354,14,22,0,-54.257481381802,-53.96251852958,0.000194293812,-54.020447229547,9.296202516668,9.086218686126,0.001556307354,8.622205647363,0.278331444019,-9.8994,-7.4909,2.40851986017,0.016,227.775722,-0.000 -0.006 0.000,0.02622952,0.005001649,0.004200638
1-0048,pubchemPAH,JQQSUOJIMKJQHS-UHFFFAOYSA-N,c1c2c(cc3c(c2)cccc3)c2c(c1)cc1c(c2)cccc1,C22H14,r2scan,278.354,14,22,0,-846.620504515281,-846.3192146997,0.0001889611,-846.3755534424,7.349946995795,7.1336344773,0.0016697019,6.6358127244,0.2851526274,-5.1574,-2.3753,2.7821,0.07797,304.56341,-0.00000 -0.03067 -0.00001,0.026001,0.004959,0.004165
1-0048,pubchemPAH,JQQSUOJIMKJQHS-UHFFFAOYSA-N,c1c2c(cc3c(c2)cccc3)c2c(c1)cc1c(c2)cccc1,C22H14,d4tzvp,278.354,14,22,0,-847.51273819983,-847.2114483841999,0.0001889611,-847.2677871269,7.240483745844,7.024171227,0.0016697019,6.5263494755,0.2851526274,-7.6587,0.0464,7.7051,0.05906,289.59082,-0.00001 -0.02323 -0.00000,0.026001,0.004959,0.004165
1-0049,pubchemPAH,JTRPLRMCBJSBJV-UHFFFAOYSA-N,c1ccc2c(c1)cc1c(c2)cc2c(c1)c1ccccc1cc2,C22H14,xtb2,278.354,14,22,0,-54.253642112393,-53.958822581496,0.000196459255,-54.017396908353,9.292363247259,9.082522738042,0.001554141911,8.619155326169,0.278173164369,-9.6327,-7.8301,1.802629227063,0.018,227.775263,0.003 0.006 0.000,0.0321181,0.004583813,0.004011327
1-0049,pubchemPAH,JTRPLRMCBJSBJV-UHFFFAOYSA-N,c1ccc2c(c1)cc1c(c2)cc2c(c1)c1ccccc1cc2,C22H14,r2scan,278.354,14,22,0,-846.615707939219,-846.3144446258,0.0001888545,-846.3707516014,7.345150419733,7.1288644034,0.0016698085,6.6310108834,0.2851298609,-4.8031,-2.8193,1.9838,0.07942,309.70283,0.01017 0.02954 0.00000,0.031767,0.00455,0.00398
1-0049,pubchemPAH,JTRPLRMCBJSBJV-UHFFFAOYSA-N,c1ccc2c(c1)cc1c(c2)cc2c(c1)c1ccccc1cc2,C22H14,d4tzvp,278.354,14,22,0,-847.506348624831,-847.2050853114,0.0001888545,-847.261392287,7.234094170845,7.0178081542,0.0016698085,6.5199546356,0.2851298609,-7.2069,-0.5148,6.6921,0.05272,295.69652,0.00368 0.02041 0.00001,0.031767,0.00455,0.00398
1-0050,pubchemPAH,JUWDMSRITFIAAW-UHFFFAOYSA-N,c1ccc2c(c1)ccc1c2c2c1ccc1c2c2c1cccc2,C22H12,xtb2,276.338,12,22,0,-53.106185876212,-52.834755926495,0.000196255063,-52.893269373439,8.93187253895,8.740700554153,0.001471470053,8.301981756557,0.255032534006,-9.7415,-7.6267,2.114765718017,0.347,217.245927,0.105 -0.088 -0.000,0.01940548,0.006171687,0.004682479
1-0050,pubchemPAH,JUWDMSRITFIAAW-UHFFFAOYSA-N,c1ccc2c(c1)ccc1c2c2c1ccc1c2c2c1cccc2,C22H12,r2scan,276.338,12,22,0,-845.261689995214,-844.9852276136,0.0001913079,-845.0422660763,6.985675847098,6.7894698016,0.0015800513,6.3183773941,0.2604030548,-4.9003,-2.6059,2.2944,0.54496,295.92456,0.17384 -0.12548 -0.00001,0.019198,0.006114,0.004637
1-0050,pubchemPAH,JUWDMSRITFIAAW-UHFFFAOYSA-N,c1ccc2c(c1)ccc1c2c2c1ccc1c2c2c1cccc2,C22H12,d4tzvp,276.338,12,22,0,-846.141754762525,-845.8652923809001,0.0001913079,-845.9223308436001,6.879559363219,6.6833533175,0.0015800513,6.2122609112,0.2604030548,-7.445,-0.1554,7.2896,0.60057,277.89854,0.20136 -0.12363 -0.00000,0.019198,0.006114,0.004637
1-0051,pubchemPAH,JVVYVDMBJGSYKH-UHFFFAOYSA-N,c1ccc2c(c1)cc1c(c2)c2ccc3c(c2cc1)ccc1c3cccc1,C26H16,xtb2,328.414,16,26,0,-63.854499130362,-63.511045635673,0.000218032726,-63.576052092836,10.933069251896,10.688757949167,0.001828257002,10.14366312261,0.32381333914,-9.8267,-7.5811,2.245606123747,0.019,267.735029,0.004 0.006 -0.000,0.02513739,0.003030345,0.002704335
1-0051,pubchemPAH,JVVYVDMBJGSYKH-UHFFFAOYSA-N,c1ccc2c(c1)cc1c(c2)c2ccc3c(c2cc1)ccc1c3cccc1,C26H16,r2scan,328.414,16,26,0,-1000.233062349462,-999.8823026206,0.0002113258,-999.9453094063,8.639097109534,8.3874775606,0.0019614658,7.8026663857,0.3316926332,-5.0849,-2.5168,2.5681,0.07889,363.35377,0.00441 0.03072 -0.00003,0.024897,0.003008,0.002684
1-0051,pubchemPAH,JVVYVDMBJGSYKH-UHFFFAOYSA-N,c1ccc2c(c1)cc1c(c2)c2ccc3c(c2cc1)ccc1c3cccc1,C26H16,d4tzvp,328.414,16,26,0,-1001.286639956211,-1000.9358802273,0.0002113258,-1000.998887013,8.513082616413,8.2614630671,0.0019614658,7.6766518938,0.3316926332,-7.5588,-0.144,7.4148,0.05562,344.98029,-0.00074 0.02187 -0.00004,0.024897,0.003008,0.002684
1-0052,pubchemPAH,JYVYSXOKKXPQHQ-UHFFFAOYSA-N,c1ccc2c(c1)c1-c3cccc4c3c(-c1c1c2cccc1)ccc4,C24H14,xtb2,302.376,14,24,0,-58.543807612115,-58.235399428642,0.000202369485,-58.295735890697,9.995936004251,9.777227899218,0.001654637937,9.283897597143,0.29062086944,-9.8588,-7.9309,1.927928805353,0.619,244.998995,-0.244 -0.000 0.000,0.01299879,0.007463962,0.004758708
1-0052,pubchemPAH,JYVYSXOKKXPQHQ-UHFFFAOYSA-N,c1ccc2c(c1)c1-c3cccc4c3c(-c1c1c2cccc1)ccc4,C24H14,r2scan,302.376,14,24,0,-922.818267752486,-922.5036753881,0.0001987596,-922.5629355593,7.883278058464,7.6583839521,0.0017733158,7.1296697079,0.297092611,-5.1758,-2.908,2.2678,0.51125,301.59748,-0.20114 -0.00001 0.00000,0.012899,0.007396,0.004707
1-0052,pubchemPAH,JYVYSXOKKXPQHQ-UHFFFAOYSA-N,c1ccc2c(c1)c1-c3cccc4c3c(-c1c1c2cccc1)ccc4,C24H14,d4tzvp,302.376,14,24,0,-923.788553505642,-923.4739611412,0.0001987596,-923.5332213124,7.77067713609,7.5457830294,0.0017733158,7.0170687866,0.297092611,-7.7377,-0.6041,7.1336,0.3918,290.62665,-0.15414 -0.00001 0.00001,0.012899,0.007396,0.004707
1-0053,pubchemPAH,JZBWKGURDWGIRZ-UHFFFAOYSA-N,c1ccc2-c3c(-c2c1)ccc1c3ccc2c1cccc2,C20H12,xtb2,252.316,12,20,0,-48.883428046687,-48.624063422598,0.00018647117,-48.679659801966,8.295707452155,8.111879736226,0.00137484769,7.701968896454,0.2442284778,-9.7455,-7.5145,2.230964547846,0.163,202.097327,0.064 -0.006 0.000,0.0383765,0.006328389,0.005432548
1-0053,pubchemPAH,JZBWKGURDWGIRZ-UHFFFAOYSA-N,c1ccc2-c3c(-c2c1)ccc1c3ccc2c1cccc2,C20H12,r2scan,252.316,12,20,0,-769.135078923179,-768.8705735648,0.0001821746,-768.9248889298,6.523496949599,6.3345269664,0.0014757722,5.894525381,0.2497116914,-4.9273,-2.4672,2.4601,0.29879,260.75341,0.11655 0.01532 0.00001,0.038089,0.006257,0.005374
1-0053,pubchemPAH,JZBWKGURDWGIRZ-UHFFFAOYSA-N,c1ccc2-c3c(-c2c1)ccc1c3ccc2c1cccc2,C20H12,d4tzvp,252.316,12,20,0,-769.944849110171,-769.6803437518,0.0001821746,-769.7346591168,6.428275626431,6.239305643,0.0014757722,5.7993040588,0.2497116914,-7.4974,0.0644,7.5618,0.32513,249.28141,0.12658 0.01841 0.00000,0.038089,0.006257,0.005374
1-0054,pubchemPAH,JZOIZKBKSZMVRV-UHFFFAOYSA-N,c1ccc2c(c1)ccc1c2c2ccccc2c2c1cccc2,C22H14,xtb2,278.354,14,22,0,-54.25634988947,-53.96064825044,0.000195400684,-54.018906964485,9.295071024336,9.084348406986,0.001555200482,8.620665382301,0.279204796033,-9.9578,-7.2913,2.666495379163,0.053,227.729789,-0.007 -0.018 0.006,0.0159204,0.008462145,0.005743068
1-0054,pubchemPAH,JZOIZKBKSZMVRV-UHFFFAOYSA-N,c1ccc2c(c1)ccc1c2c2ccccc2c2c1cccc2,C22H14,r2scan,278.354,14,22,0,-846.616975087914,-846.3143704562,0.0001891704,-846.3707716069,7.346417568428,7.1287902338,0.0016694926,6.6310308889,0.2867082473,-5.2714,-2.1941,3.0773,0.08646,272.01451,-0.00983 -0.02827 0.01617,0.015781,0.008356,0.00565
1-0054,pubchemPAH,JZOIZKBKSZMVRV-UHFFFAOYSA-N,c1ccc2c(c1)ccc1c2c2ccccc2c2c1cccc2,C22H14,d4tzvp,278.354,14,22,0,-847.514300697379,-847.2116960657,0.0001891704,-847.2680972164001,7.242046243393,7.0244189085,0.0016694926,6.526659565,0.2867082473,-7.8068,0.2296,8.0364,0.09078,263.9381,-0.00926 -0.03187 0.01318,0.015781,0.008356,0.00565
1-0055,pubchemPAH,KBAQJDHACJYLGU-UHFFFAOYSA-N,c1ccc2-c3c(-c2c1)c1ccccc1c1c3cccc1,C20H12,xtb2,252.316,12,20,0,-48.879851847147,-48.62049951591,0.000185427888,-48.675784840838,8.292131252615,8.108315829538,0.001375890972,7.698093935326,0.244134447934,-9.5764,-7.7154,1.861067904424,0.399,202.029951,0.157 -0.000 -0.000,0.01676466,0.01066221,0.006517271
1-0055,pubchemPAH,KBAQJDHACJYLGU-UHFFFAOYSA-N,c1ccc2-c3c(-c2c1)c1ccccc1c1c3cccc1,C20H12,r2scan,252.316,12,20,0,-769.132252147862,-768.8679849197,0.0001833302,-768.922644826,6.520670174282,6.3319383213,0.0014746166,5.8922812772,0.2493000906,-4.7519,-2.6295,2.1224,0.64261,253.5074,0.25282 -0.00001 -0.00005,0.016655,0.010537,0.006454
1-0055,pubchemPAH,KBAQJDHACJYLGU-UHFFFAOYSA-N,c1ccc2-c3c(-c2c1)c1ccccc1c1c3cccc1,C20H12,d4tzvp,252.316,12,20,0,-769.941325268046,-769.6770580398,0.0001833302,-769.7317179461,6.424751784306,6.236019931,0.0014746166,5.7963628881,0.2493000906,-7.2464,-0.1458,7.1006,0.75989,243.86037,0.29896 -0.00001 -0.00006,0.016655,0.010537,0.006454
1-0056,pubchemPAH,KGHMWBNEMFNJFZ-UHFFFAOYSA-N,c1cccc2c1cc1c3c2ccc2c3c(c3c1cccc3)ccc2,C24H14,xtb2,302.376,14,24,0,-58.569662918425,-58.260860339804,0.00020333861,-58.321485746456,10.021791310561,9.80268881038,0.001653668812,9.309647452902,0.291210288998,-9.8182,-7.5777,2.240461399094,0.021,245.113667,-0.003 -0.008 -0.000,0.01310091,0.007308304,0.004691285
1-0056,pubchemPAH,KGHMWBNEMFNJFZ-UHFFFAOYSA-N,c1cccc2c1cc1c3c2ccc2c3c(c3c1cccc3)ccc2,C24H14,r2scan,302.376,14,24,0,-922.846878511769,-922.5322005761,0.0001985885,-922.591409752,7.911888817747,7.6869091401,0.0017734869,7.1581439006,0.2973641144,-5.0596,-2.4718,2.5878,0.06513,306.72046,0.01746 -0.01870 -0.00136,0.012982,0.007254,0.004654
1-0056,pubchemPAH,KGHMWBNEMFNJFZ-UHFFFAOYSA-N,c1cccc2c1cc1c3c2ccc2c3c(c3c1cccc3)ccc2,C24H14,d4tzvp,302.376,14,24,0,-923.816234542571,-923.5015566069,0.0001985885,-923.5607657828,7.798358173019,7.5733784951,0.0017734869,7.044613257,0.2973641144,-7.4605,-0.1588,7.3017,0.05709,296.40472,0.01357 -0.01787 -0.00093,0.012982,0.007254,0.004654
1-0057,pubchemPAH,KHNYNFUTFKJLDD-UHFFFAOYSA-N,c1ccc2c(c1)ccc1-c3c4c(-c21)cccc4ccc3,C20H12,xtb2,252.316,12,20,0,-48.95144020722,-48.69145631041,0.000182597247,-48.745897679739,8.363719612688,8.179272624038,0.001378721613,7.768206774227,0.245262579439,-9.9447,-7.852,2.092773362983,0.497,205.039731,-0.192 -0.037 0.000,0.02607941,0.008776905,0.006566859
1-0057,pubchemPAH,KHNYNFUTFKJLDD-UHFFFAOYSA-N,c1ccc2c(c1)ccc1-c3c4c(-c21)cccc4ccc3,C20H12,r2scan,252.316,12,20,0,-769.211118328752,-768.9456091661,0.0001784916,-768.998826442,6.599536355172,6.4095625677,0.0014794552,5.9684628932,0.251162742,-5.2357,-2.81,2.4257,0.45623,248.11222,-0.17899 -0.01343 -0.00000,0.025872,0.008694,0.006507
1-0057,pubchemPAH,KHNYNFUTFKJLDD-UHFFFAOYSA-N,c1ccc2c(c1)ccc1-c3c4c(-c21)cccc4ccc3,C20H12,d4tzvp,252.316,12,20,0,-770.020117783055,-769.7546086204,0.0001784916,-769.8078258963,6.503544299315,6.3135705116,0.0014794552,5.8724708383,0.251162742,-7.8747,-0.4696,7.4051,0.32126,240.55719,-0.12638 -0.00149 0.00000,0.025872,0.008694,0.006507
1-0058,pubchemPAH,KKWNFCVLJZXKCD-UHFFFAOYSA-N,c1c2c(cc3c(c2)c2ccccc2cc3)cc2c1ccc1c2cccc1,C26H16,xtb2,328.414,16,26,0,-63.853817066593,-63.510652463813,0.000214744415,-63.574678511156,10.932387188127,10.688364777307,0.001831545313,10.14228954093,0.323636339151,-9.699,-7.7457,1.953341524047,0.0,267.748132,0.000 -0.000 -0.000,0.02506255,0.002938428,0.002630069