id,subset,key,smiles,formula,level,mwt,nH,nC,nCl,E,H,S,G,dE,dH,dS,dG,zpe,homo,lumo,gap,Mu,alpha,tMu,rotA,rotB,rotC
2-0248,pubchemPCH,NDZIBNJHNBUHKW-UHFFFAOYSA-N,Clc1c(Cl)c(Cl)cc2c1c(Cl)c(c(c2Cl)Cl)Cl,C10HCl7,r2scan,369.289,1,10,7,-3602.82152530332,-3602.7262435685,0.0002009356,-3602.7861525221,3.204139725784,3.1513466393,0.0008337242,2.9027716324,0.0786064106,-6.1734,-3.2104,2.963,0.68505,221.17261,-0.02746 0.26787 0.01132,0.011357,0.006022,0.00399
2-0248,pubchemPCH,NDZIBNJHNBUHKW-UHFFFAOYSA-N,Clc1c(Cl)c(Cl)cc2c1c(Cl)c(c(c2Cl)Cl)Cl,C10HCl7,d4tzvp,369.289,1,10,7,-3603.490918910305,-3603.3956371755,0.0002009356,-3603.4555461291,3.191641378075,3.1388482919,0.0008337242,2.8902732851,0.0786064106,-8.9329,-0.7742,8.1587,0.77844,211.19999,-0.03400 0.30404 0.01407,0.011357,0.006022,0.00399
2-0249,pubchemPCH,NGCWYZOVEUEQNH-UHFFFAOYSA-N,c1ccc2c(c1)c1c(cc2)ccc2c1cccc2Cl,C18H11Cl,xtb2,262.739,11,18,1,-48.713004951313,-48.473818170726,0.000184969986,-48.528966972093,7.622834728486,7.454463799299,0.001286847014,7.070790361265,0.224296497354,-10.1975,-7.4415,2.755938316609,2.108,199.872084,0.791 0.196 -0.154,0.02641438,0.007663168,0.006078389
2-0249,pubchemPCH,NGCWYZOVEUEQNH-UHFFFAOYSA-N,c1ccc2c(c1)c1c(cc2)ccc2c1cccc2Cl,C18H11Cl,r2scan,262.739,11,18,1,-1152.58900694988,-1152.3441223983,0.0001795838,-1152.3976653138,6.025135548068,5.8510654107,0.0013818624,5.4390630299,0.2305527849,-5.4716,-2.355,3.1166,1.97459,234.39942,0.74435 0.17925 -0.13156,0.026282,0.00753,0.005977
2-0249,pubchemPCH,NGCWYZOVEUEQNH-UHFFFAOYSA-N,c1ccc2c(c1)c1c(cc2)ccc2c1cccc2Cl,C18H11Cl,d4tzvp,262.739,11,18,1,-1153.359905945699,-1153.1150213940998,0.0001795838,-1153.1685643095998,5.941678415285,5.7676082777,0.0013818624,5.355605898,0.2305527849,-8.0743,0.0831,8.1574,1.95592,227.89044,0.73399 0.18632 -0.13667,0.026282,0.00753,0.005977
2-0250,pubchemPCH,NHOWZXNSPMHSIV-UHFFFAOYSA-N,c1cc(Cl)c2-c3c4c(-c2c1)cccc4cc1c3cccc1,C20H11Cl,xtb2,286.761,11,20,1,-52.995154167354,-52.743447251523,0.000192591145,-52.800868301551,8.318391201797,8.142221194126,0.001385632111,7.729094979353,0.235718200222,-9.9524,-8.1664,1.786088995279,1.885,217.171401,0.079 -0.724 -0.138,0.01237636,0.01090155,0.005877179
2-0250,pubchemPCH,NHOWZXNSPMHSIV-UHFFFAOYSA-N,c1cc(Cl)c2-c3c4c(-c2c1)cccc4cc1c3cccc1,C20H11Cl,r2scan,286.761,11,20,1,-1228.780195262133,-1228.5228183737,0.0001870421,-1228.5785849698,6.551891685785,6.3700501725,0.0014878165,5.9264575525,0.2419096352,-5.1792,-3.1045,2.0747,1.84237,266.50531,0.05005 -0.69864 -0.18648,0.0123,0.010693,0.005818
2-0250,pubchemPCH,NHOWZXNSPMHSIV-UHFFFAOYSA-N,c1cc(Cl)c2-c3c4c(-c2c1)cccc4cc1c3cccc1,C20H11Cl,d4tzvp,286.761,11,20,1,-1229.621944989828,-1229.3645681014,0.0001870421,-1229.4203346975,6.458095543848,6.2762540304,0.0014878165,5.8326614115,0.2419096352,-7.6223,-0.8304,6.7919,1.86909,259.55047,0.11552 -0.70185 -0.18653,0.0123,0.010693,0.005818
2-0251,pubchemPCH,NKGXCFXJMVDZGL-UHFFFAOYSA-N,c1ccc2c(c1)c1c(cc2)c(Cl)cc2c1cccc2,C18H11Cl,xtb2,262.739,11,18,1,-48.712901360503,-48.473717202752,0.000185504895,-48.529025487127,7.622731137676,7.454362831325,0.001286312105,7.070848876299,0.224269151426,-10.2615,-7.4653,2.796205365191,2.022,199.890304,0.199 0.769 -0.042,0.01534127,0.01120614,0.006613789
2-0251,pubchemPCH,NKGXCFXJMVDZGL-UHFFFAOYSA-N,c1ccc2c(c1)c1c(cc2)c(Cl)cc2c1cccc2,C18H11Cl,r2scan,262.739,11,18,1,-1152.588536387217,-1152.3436399803,0.0001798106,-1152.3972505017,6.024664985405,5.8505829927,0.0013816356,5.4386482178,0.2305409128,-5.5113,-2.3589,3.1524,1.85514,234.16865,0.20239 0.69999 -0.04179,0.015208,0.01103,0.006518
2-0251,pubchemPCH,NKGXCFXJMVDZGL-UHFFFAOYSA-N,c1ccc2c(c1)c1c(cc2)c(Cl)cc2c1cccc2,C18H11Cl,d4tzvp,262.739,11,18,1,-1153.359610403282,-1153.1147139963998,0.0001798106,-1153.1683245178,5.941382872868,5.76730088,0.0013816356,5.3553661062,0.2305409128,-8.1163,0.0919,8.2082,1.85486,227.86415,0.17422 0.70742 -0.04162,0.015208,0.01103,0.006518
2-0252,pubchemPCH,NMAMEWIQKMFSSI-UHFFFAOYSA-N,c1c(Cl)cc(c2c1cc(Cl)c(c2Cl)Cl)Cl,C10H3Cl5,xtb2,300.399,3,10,5,-45.714715151888,-45.605025488883,0.000188420718,-45.661203126051,4.188677471625,4.12147731946,0.000759636742,3.894991624563,0.095022612293,-10.9538,-8.3401,2.613752196523,1.653,169.767377,0.382 0.526 0.000,0.01698478,0.008005392,0.005440932
2-0252,pubchemPCH,NMAMEWIQKMFSSI-UHFFFAOYSA-N,c1c(Cl)cc(c2c1cc(Cl)c(c2Cl)Cl)Cl,C10H3Cl5,r2scan,300.399,3,10,5,-2683.676489422192,-2683.5645575819,0.0001862591,-2683.620090734,3.292547050192,3.2231038583,0.0008145771,2.9802375813,0.0976003571,-6.0772,-2.9222,3.155,1.54398,190.75522,0.32787 0.51135 0.00002,0.016533,0.007904,0.005348
2-0252,pubchemPCH,NMAMEWIQKMFSSI-UHFFFAOYSA-N,c1c(Cl)cc(c2c1cc(Cl)c(c2Cl)Cl)Cl,C10H3Cl5,d4tzvp,300.399,3,10,5,-2684.272170100454,-2684.1602382601995,0.0001862591,-2684.2157714122995,3.267444492704,3.198001301,0.0008145771,2.9551350243,0.0976003571,-8.8296,-0.4271,8.4025,1.72001,183.69185,0.37916 0.56049 0.00002,0.016533,0.007904,0.005348
2-0253,pubchemPCH,NPJWQXLUKLOPFC-UHFFFAOYSA-N,c1c(Cl)cc2c(c1)cc1c(c2)ccc2c1cccc2,C18H11Cl,xtb2,262.739,11,18,1,-48.717407499051,-48.478536457647,0.000186864321,-48.534250054989,7.627237276224,7.45918208622,0.001284952679,7.076073444161,0.223775424022,-10.1357,-7.7354,2.400245895309,2.408,199.901525,0.938 0.130 -0.000,0.03937726,0.00530187,0.004672721
2-0253,pubchemPCH,NPJWQXLUKLOPFC-UHFFFAOYSA-N,c1c(Cl)cc2c(c1)cc1c(c2)ccc2c1cccc2,C18H11Cl,r2scan,262.739,11,18,1,-1152.595276769752,-1152.3512713689,0.0001820916,-1152.4055619939,6.03140536794,5.8582143813,0.0013793546,5.44695971,0.2293474657,-5.3244,-2.6081,2.7163,2.25246,251.60344,0.87120 0.16216 0.00000,0.038989,0.005256,0.004632
2-0253,pubchemPCH,NPJWQXLUKLOPFC-UHFFFAOYSA-N,c1c(Cl)cc2c(c1)cc1c(c2)ccc2c1cccc2,C18H11Cl,d4tzvp,262.739,11,18,1,-1153.364857420883,-1153.12085202,0.0001820916,-1153.175142645,5.946629890469,5.7734389036,0.0013793546,5.3621842334,0.2293474657,-7.8728,-0.1854,7.6874,2.2561,242.01499,0.87476 0.15040 0.00001,0.038989,0.005256,0.004632
2-0254,pubchemPCH,NRMXAJPZWJTBKE-UHFFFAOYSA-N,c1c2c(cc(c(c2)Cl)Cl)cc2c1cccc2,C14H8Cl2,xtb2,247.124,8,14,2,-43.166550273753,-42.984231010622,0.000174924399,-43.036384720147,5.947488693233,5.821822111222,0.001018108435,5.518273080675,0.168760986237,-10.2482,-8.0587,2.189502510961,3.415,172.314935,-1.343 0.000 0.000,0.04211057,0.006958488,0.005971704
2-0254,pubchemPCH,NRMXAJPZWJTBKE-UHFFFAOYSA-N,c1c2c(cc(c(c2)Cl)Cl)cc2c1cccc2,C14H8Cl2,r2scan,247.124,8,14,2,-1458.558227961297,-1458.3719302171,0.0001701728,-1458.4226672517,4.701042677159,4.5713964643,0.0010940566,4.2452034019,0.1731667849,-5.3414,-2.8619,2.4795,3.12245,210.71878,-1.22844 0.00004 0.00008,0.040995,0.006923,0.005923
2-0254,pubchemPCH,NRMXAJPZWJTBKE-UHFFFAOYSA-N,c1c2c(cc(c(c2)Cl)Cl)cc2c1cccc2,C14H8Cl2,d4tzvp,247.124,8,14,2,-1459.202679912508,-1459.0163821683,0.0001701728,-1459.0671192029,4.638479305666,4.5088330927,0.0010940566,4.1826400311,0.1731667849,-7.8982,-0.4525,7.4457,3.25596,204.10018,-1.28097 -0.00001 0.00008,0.040995,0.006923,0.005923
2-0255,pubchemPCH,NSXZJKQWJYDLAK-UHFFFAOYSA-N,c1ccc2-c3c4c(-c2c1)cccc4c1c(c3)ccc(c1)Cl,C20H11Cl,xtb2,286.761,11,20,1,-53.012050689248,-52.760104638768,0.000192983533,-52.817642679258,8.335287723691,8.158878581371,0.001385239723,7.74586935706,0.235947896056,-10.3595,-7.8374,2.522120831399,1.854,217.190206,-0.710 0.167 0.000,0.02457258,0.005423386,0.004442817
2-0255,pubchemPCH,NSXZJKQWJYDLAK-UHFFFAOYSA-N,c1ccc2-c3c4c(-c2c1)cccc4c1c(c3)ccc(c1)Cl,C20H11Cl,r2scan,286.761,11,20,1,-1228.801439013741,-1228.5444600112,0.0001890949,-1228.6008386696,6.573135437393,6.39169181,0.0014857637,5.9487112523,0.2413087948,-5.6266,-2.7061,2.9205,1.70781,271.65103,-0.64628 0.18374 0.00000,0.024369,0.005373,0.004402
2-0255,pubchemPCH,NSXZJKQWJYDLAK-UHFFFAOYSA-N,c1ccc2-c3c4c(-c2c1)cccc4c1c(c3)ccc(c1)Cl,C20H11Cl,d4tzvp,286.761,11,20,1,-1229.646810668932,-1229.3898316664,0.0001890949,-1229.4462103248,6.482961222952,6.3015175954,0.0014857637,5.8585370388,0.2413087948,-8.2056,-0.3417,7.8639,1.86558,260.24325,-0.70634 0.19946 -0.00000,0.024369,0.005373,0.004402
2-0256,pubchemPCH,NTJXOJONZKEECF-UHFFFAOYSA-N,c1c2c(cc3c1c(Cl)c1c(c3Cl)cc(c(c1)Cl)Cl)c(Cl)c1c(c2Cl)cc(c(c1)Cl)Cl,C22H6Cl8,xtb2,553.914,6,22,8,-86.643754843008,-86.414972069413,0.000275120467,-86.496999236753,8.970137009674,8.826333257759,0.001610715867,8.346098321081,0.201302298572,-10.3036,-9.2546,1.049054135255,0.0,326.527408,0.000 -0.000 -0.000,0.008155259,0.001286633,0.001111305
2-0256,pubchemPCH,NTJXOJONZKEECF-UHFFFAOYSA-N,c1c2c(cc3c1c(Cl)c1c(c3Cl)cc(c(c1)Cl)Cl)c(Cl)c1c(c2Cl)cc(c(c1)Cl)Cl,C22H6Cl8,r2scan,553.914,6,22,8,-4523.239527966954,-4523.0061436955,0.0002655779,-4523.0853257572,7.035197625323,6.8867906507,0.0017283795,6.3714740912,0.2064528618,-5.2583,-4.1531,1.1052,1E-05,487.10655,-0.00000 0.00000 0.00000,0.007972,0.00128,0.001103
2-0256,pubchemPCH,NTJXOJONZKEECF-UHFFFAOYSA-N,c1c2c(cc3c1c(Cl)c1c(c3Cl)cc(c(c1)Cl)Cl)c(Cl)c1c(c2Cl)cc(c(c1)Cl)Cl,C22H6Cl8,d4tzvp,553.914,6,22,8,-4524.409202921668,-4524.1758186502,0.0002655779,-4524.2550007119,6.958740769762,6.8103337954,0.0017283795,6.2950172365,0.2064528618,-7.5473,-2.1018,5.4455,9E-05,451.74248,-0.00003 -0.00000 -0.00001,0.007972,0.00128,0.001103
2-0257,pubchemPCH,NTUSUFWLLATGTO-UHFFFAOYSA-N,Clc1c(Cl)cc2c(c1Cl)cc1c(c2Cl)cccc1,C14H6Cl4,xtb2,316.014,6,14,4,-51.263428155412,-51.097408086072,0.000198525619,-51.156598499369,5.866281832842,5.756914444622,0.001028316007,5.450322026525,0.1497514107,-10.4528,-8.4402,2.012655133517,3.421,197.1643,-1.330 -0.207 0.000,0.01640565,0.006507272,0.004659206
2-0257,pubchemPCH,NTUSUFWLLATGTO-UHFFFAOYSA-N,Clc1c(Cl)cc2c(c1Cl)cc1c(c2Cl)cccc1,C14H6Cl4,r2scan,316.014,6,14,4,-2377.714312570918,-2377.5445380366,0.0001921217,-2377.6018191082,4.623684081244,4.5105610782,0.0011059313,4.1808275214,0.1540365072,-5.5276,-3.1943,2.3333,3.12865,237.33296,-1.20660 -0.24329 0.00003,0.016068,0.006468,0.004612
2-0257,pubchemPCH,NTUSUFWLLATGTO-UHFFFAOYSA-N,Clc1c(Cl)cc2c(c1Cl)cc1c(c2Cl)cccc1,C14H6Cl4,d4tzvp,316.014,6,14,4,-2378.431666898177,-2378.2618923639,0.0001921217,-2378.3191734355,4.572914366855,4.4597913639,0.0011059313,4.1300578077,0.1540365072,-8.0833,-0.8444,7.2389,3.26753,228.96939,-1.26149 -0.24740 0.00003,0.016068,0.006468,0.004612
2-0258,pubchemPCH,NVKAMGFTMJNBJQ-UHFFFAOYSA-N,Clc1ccc2-c3c(-c2c1Cl)c(Cl)c(c(c3Cl)Cl)Cl,C12H2Cl6,xtb2,358.866,2,12,6,-53.983827854041,-53.869987888199,0.000211253883,-53.93297323341,4.782155060023,4.715525661781,0.000860114229,4.459082603866,0.096307706701,-10.9522,-8.6182,2.33409375585,2.039,196.359656,0.405 -0.693 0.000,0.01365946,0.00505887,0.003691645
2-0258,pubchemPCH,NVKAMGFTMJNBJQ-UHFFFAOYSA-N,Clc1ccc2-c3c(-c2c1Cl)c(Cl)c(c(c3Cl)Cl)Cl,C12H2Cl6,r2scan,358.866,2,12,6,-3219.387526188448,-3219.2720235605,0.0002028882,-3219.3325146833,3.722430039144,3.6541370205,0.0009282722,3.3773725287,0.0981944698,-5.8978,-3.2089,2.6889,2.01967,235.07317,0.30232 -0.73482 0.00004,0.013478,0.005021,0.003658
2-0258,pubchemPCH,NVKAMGFTMJNBJQ-UHFFFAOYSA-N,Clc1ccc2-c3c(-c2c1Cl)c(Cl)c(c(c3Cl)Cl)Cl,C12H2Cl6,d4tzvp,358.866,2,12,6,-3220.092947040235,-3219.9774444123004,0.0002028882,-3220.0379355351,3.695323554679,3.6270305363,0.0009282722,3.3502660447,0.0981944698,-8.6392,-0.6183,8.0209,2.14676,222.41116,0.32915 -0.77780 0.00004,0.013478,0.005021,0.003658
2-0259,pubchemPCH,NWLJYMUKCNFPAO-UHFFFAOYSA-N,c1c(Cl)cc2c(c1)cc1c(c2)ccc(c1Cl)Cl,C14H7Cl3,xtb2,281.569,7,14,3,-47.218787596295,-47.044606472911,0.000187705657,-47.100570914452,5.91068364475,5.793155202486,0.001022231573,5.488376858294,0.159298110263,-10.3881,-8.2697,2.11841503308,1.33,184.511602,-0.221 0.474 0.000,0.03638167,0.005015033,0.004407483
2-0259,pubchemPCH,NWLJYMUKCNFPAO-UHFFFAOYSA-N,c1c(Cl)cc2c(c1)cc1c(c2)ccc(c1Cl)Cl,C14H7Cl3,r2scan,281.569,7,14,3,-1918.140782777433,-1917.9627800998,0.0001825525,-1918.0172081361,4.666875890527,4.5455247442,0.0010985887,4.2179804178,0.163576628,-5.4944,-3.0301,2.4643,1.16398,225.8461,-0.17049 0.42502 0.00002,0.035861,0.004966,0.004362
2-0259,pubchemPCH,NWLJYMUKCNFPAO-UHFFFAOYSA-N,c1c(Cl)cc2c(c1)cc1c(c2)ccc(c1Cl)Cl,C14H7Cl3,d4tzvp,281.569,7,14,3,-1918.82085725487,-1918.6428545773,0.0001825525,-1918.6972826136,4.609380685788,4.4880295395,0.0010985887,4.1604852138,0.163576628,-8.0597,-0.6331,7.4266,1.21067,217.68932,-0.16679 0.44615 0.00002,0.035861,0.004966,0.004362
2-0260,pubchemPCH,NXOXWZMIZVDFKE-UHFFFAOYSA-N,c1c2c(c(Cl)c3c(c2Cl)cc2c(c3)cccc2)cc2c1cccc2,C22H12Cl2,xtb2,347.244,12,22,2,-62.344822547416,-62.066740460429,0.000213536958,-62.130406504417,9.205458940232,9.012355874925,0.001570873,8.544000088861,0.258698836386,-9.6261,-8.4933,1.13279397749,0.001,252.184221,0.000 0.000 -0.000,0.01600188,0.003946175,0.003165533
2-0260,pubchemPCH,NXOXWZMIZVDFKE-UHFFFAOYSA-N,c1c2c(c(Cl)c3c(c2Cl)cc2c(c3)cccc2)cc2c1cccc2,C22H12Cl2,r2scan,347.244,12,22,2,-1765.761878100719,-1765.4776445561,0.000206342,-1765.5391654199,7.257877375697,7.0586211281,0.0016861446,6.5558969649,0.2654110993,-4.6997,-3.4973,1.2024,0.00023,356.61675,0.00000 -0.00009 0.00000,0.015711,0.00392,0.003137
2-0260,pubchemPCH,NXOXWZMIZVDFKE-UHFFFAOYSA-N,c1c2c(c(Cl)c3c(c2Cl)cc2c(c3)cccc2)cc2c1cccc2,C22H12Cl2,d4tzvp,347.244,12,22,2,-1766.717882317313,-1766.4336487727,0.000206342,-1766.4951696365,7.151075938847,6.9518196911,0.0016861446,6.4490955291,0.2654110993,-6.9605,-1.3769,5.5836,4E-05,343.36121,0.00000 -0.00002 -0.00000,0.015711,0.00392,0.003137
2-0261,pubchemPCH,NXXNBEYMRKHPKK-UHFFFAOYSA-N,c1ccc2c(c1)c1ccccc1c1c2cccc1Cl,C18H11Cl,xtb2,262.739,11,18,1,-48.712009388665,-48.472595057867,0.000186535888,-48.528210732834,7.621839165838,7.45324068644,0.001285281112,7.070034122006,0.224339376665,-10.3751,-7.1738,3.201233717834,1.834,199.899337,0.631 0.266 0.226,0.0167543,0.01152874,0.007062535
2-0261,pubchemPCH,NXXNBEYMRKHPKK-UHFFFAOYSA-N,c1ccc2c(c1)c1ccccc1c1c2cccc1Cl,C18H11Cl,r2scan,262.739,11,18,1,-1152.584777585074,-1152.3399487553,0.0001814056,-1152.3940348256,6.020906183262,5.8468917677,0.0013800406,5.4354325417,0.2302437737,-5.7076,-2.039,3.6686,1.70875,226.97918,0.56867 0.26518 0.24131,0.016516,0.011351,0.006956
2-0261,pubchemPCH,NXXNBEYMRKHPKK-UHFFFAOYSA-N,c1ccc2c(c1)c1ccccc1c1c2cccc1Cl,C18H11Cl,d4tzvp,262.739,11,18,1,-1153.359841213173,-1153.1150123834,0.0001814056,-1153.1690984537,5.941613682759,5.767599267,0.0013800406,5.3561400421,0.2302437737,-8.3747,0.4588,8.8335,1.72839,221.77605,0.56386 0.29075 0.24477,0.016516,0.011351,0.006956
2-0262,pubchemPCH,OBUSZUCZKSCTMW-UHFFFAOYSA-N,c1ccc2c(c1Cl)c(Cl)c(cc2Cl)Cl,C10H4Cl4,xtb2,265.954,4,10,4,-41.666874044354,-41.548837518358,0.000177119392,-41.601645665177,4.229878735116,4.15433171996,0.000754033672,3.929516580375,0.104724476206,-10.7121,-8.1155,2.596541903916,2.28,157.188504,0.607 0.661 0.000,0.0164701,0.01452084,0.007717085
2-0262,pubchemPCH,OBUSZUCZKSCTMW-UHFFFAOYSA-N,c1ccc2c(c1Cl)c(Cl)c(cc2Cl)Cl,C10H4Cl4,r2scan,265.954,4,10,4,-2224.097732561039,-2223.9769972667,0.0001731856,-2224.0286325486,3.330511791807,3.2522651459,0.0008107388,3.0105432644,0.1078180111,-5.8982,-2.7696,3.1286,2.29442,170.9928,0.57109 0.69865 -0.02398,0.016101,0.014242,0.007602
2-0262,pubchemPCH,OBUSZUCZKSCTMW-UHFFFAOYSA-N,c1ccc2c(c1Cl)c(Cl)c(cc2Cl)Cl,C10H4Cl4,d4tzvp,265.954,4,10,4,-2224.657809371207,-2224.5370740769,0.0001731856,-2224.5887093588,3.300359725697,3.2221130799,0.0008107388,2.9803911988,0.1078180111,-8.6467,-0.2799,8.3668,2.41236,166.51156,0.58945 0.74345 -0.02428,0.016101,0.014242,0.007602
2-0263,pubchemPCH,OCJBOOLMMGQPQU-UHFFFAOYSA-N,c1c(Cl)ccc(c1)Cl,C6H4Cl2,xtb2,147.004,4,6,2,-23.98291905281,-23.89637661477,0.000130327363,-23.935233718072,2.684159498954,2.625943401474,0.000471328347,2.485416854684,0.078618532498,-10.9368,-6.9655,3.971288249792,0.0,92.227541,0.000 0.000 -0.000,0.1910496,0.02226077,0.01993766
2-0263,pubchemPCH,OCJBOOLMMGQPQU-UHFFFAOYSA-N,c1c(Cl)ccc(c1)Cl,C6H4Cl2,r2scan,147.004,4,6,2,-1151.347328782034,-1151.2587352192,0.0001284191,-1151.2970233747,2.13695893878,2.0766911416,0.0005075531,1.9253641301,0.0809168358,-6.2985,-1.6824,4.6161,0.0,91.34102,0.00000 -0.00000 0.00000,0.189371,0.021914,0.019641
2-0263,pubchemPCH,OCJBOOLMMGQPQU-UHFFFAOYSA-N,c1c(Cl)ccc(c1)Cl,C6H4Cl2,d4tzvp,147.004,4,6,2,-1151.676401899581,-1151.5878083368,0.0001284191,-1151.6260964923,2.114807064363,2.0545392672,0.0005075531,1.9032122561,0.0809168358,-9.3178,1.1043,10.4221,0.0,90.79756,-0.00000 0.00000 0.00000,0.189371,0.021914,0.019641
2-0264,pubchemPCH,ODKYERHPYWLTEO-UHFFFAOYSA-N,c1c(Cl)c(Cl)cc2c1ccc1c2cccc1Cl,C14H7Cl3,xtb2,281.569,7,14,3,-47.224841855505,-47.050276857604,0.000187570305,-47.10620094394,5.91673790396,5.798825587179,0.001022366925,5.494006887782,0.159678284387,-10.6752,-7.7834,2.891795035794,1.638,184.521417,-0.625 -0.159 0.000,0.02944415,0.005732287,0.004798164
2-0264,pubchemPCH,ODKYERHPYWLTEO-UHFFFAOYSA-N,c1c(Cl)c(Cl)cc2c1ccc1c2cccc1Cl,C14H7Cl3,r2scan,281.569,7,14,3,-1918.147404907487,-1917.9690796544,0.0001828867,-1918.0236073259,4.673498020581,4.5518242988,0.0010982545,4.2243796076,0.1638666616,-5.9088,-2.4707,3.4381,1.44494,214.83074,-0.54736 -0.15350 0.00001,0.028917,0.005682,0.004749
2-0264,pubchemPCH,ODKYERHPYWLTEO-UHFFFAOYSA-N,c1c(Cl)c(Cl)cc2c1ccc1c2cccc1Cl,C14H7Cl3,d4tzvp,281.569,7,14,3,-1918.831019587928,-1918.6526943348,0.0001828867,-1918.7072220063,4.619543018846,4.497869297,0.0010982545,4.1704246065,0.1638666616,-8.5918,0.0452,8.637,1.56627,207.65901,-0.59699 -0.15268 0.00002,0.028917,0.005682,0.004749
2-0265,pubchemPCH,OFAYZEOKBUDSOM-UHFFFAOYSA-N,Clc1ccc2c(c1)cc(c1c2c2c(cc1)ccc1c2cccc1)Cl,C22H12Cl2,xtb2,347.244,12,22,2,-62.358615565546,-62.07979296245,0.000215670439,-62.144095103746,9.219251958362,9.025408376946,0.001568739519,8.55768868819,0.259738163352,-10.3697,-7.6893,2.68041034874,2.623,252.07092,1.024 0.001 0.126,0.007937848,0.0063924,0.003772071
2-0265,pubchemPCH,OFAYZEOKBUDSOM-UHFFFAOYSA-N,Clc1ccc2c(c1)cc(c1c2c2c(cc1)ccc1c2cccc1)Cl,C22H12Cl2,r2scan,347.244,12,22,2,-1765.776305009129,-1765.4908359638,0.0002076644,-1765.5527511111,7.272304284107,7.0718125358,0.0016848222,6.5694826561,0.2671175454,-5.6201,-2.52,3.1001,2.51653,303.59507,0.98475 -0.02222 0.09993,0.00789,0.006236,0.003711
2-0265,pubchemPCH,OFAYZEOKBUDSOM-UHFFFAOYSA-N,Clc1ccc2c(c1)cc(c1c2c2c(cc1)ccc1c2cccc1)Cl,C22H12Cl2,d4tzvp,347.244,12,22,2,-1766.741157450363,-1766.4556884051,0.0002076644,-1766.5176035523998,7.174351071897,6.9738593235,0.0016848222,6.471529445,0.2671175454,-8.2035,-0.0825,8.121,2.46688,291.92229,0.96502 -0.01057 0.10272,0.00789,0.006236,0.003711
2-0266,pubchemPCH,OHXRVAYBWRSMSC-UHFFFAOYSA-N,Clc1c(Cl)c(Cl)c2c(c1Cl)ccc1c2c(Cl)c(Cl)cc1,C14H4Cl6,xtb2,384.904,4,14,6,-59.347803733101,-59.198468815449,0.000217608042,-59.263348653167,5.772572668481,5.679890431949,0.001043042376,5.368907346951,0.130513337051,-10.7938,-8.2663,2.527447137606,3.766,222.255271,-0.689 1.295 0.210,0.01221647,0.004958377,0.003775708
2-0266,pubchemPCH,OHXRVAYBWRSMSC-UHFFFAOYSA-N,Clc1c(Cl)c(Cl)c2c(c1Cl)ccc1c2c(Cl)c(Cl)cc1,C14H4Cl6,r2scan,384.904,4,14,6,-3296.851578236629,-3296.698507167,0.000208297,-3296.7606109144,4.527506541419,4.431087003,0.0011235796,4.0960915906,0.1350757084,-5.9217,-2.8857,3.036,3.5372,257.76125,-0.62711 1.22316 0.21727,0.012004,0.004864,0.003743
2-0266,pubchemPCH,OHXRVAYBWRSMSC-UHFFFAOYSA-N,Clc1c(Cl)c(Cl)c2c(c1Cl)ccc1c2c(Cl)c(Cl)cc1,C14H4Cl6,d4tzvp,384.904,4,14,6,-3297.643800405732,-3297.4907293361,0.000208297,-3297.5528330835,4.49049594993,4.3940764117,0.0011235796,4.0590809997,0.1350757084,-8.6159,-0.4618,8.1541,3.74059,245.98907,-0.64995 1.30058 0.22747,0.012004,0.004864,0.003743
2-0267,pubchemPCH,OKKOFLXECXPQAH-UHFFFAOYSA-N,c1ccc2c(c1)c1c(cc2)ccc2c1c(Cl)ccc2Cl,C18H10Cl2,xtb2,297.184,10,18,2,-52.758714032159,-52.528083367372,0.000195038729,-52.586234164483,7.579501438307,7.41968662492,0.001293682667,7.033975136969,0.214428576274,-10.3187,-7.6626,2.656045514195,1.402,212.198404,0.493 -0.213 0.126,0.01841651,0.007399209,0.005721829