id,subset,key,smiles,formula,level,mwt,nH,nC,nCl,E,H,S,G,dE,dH,dS,dG,zpe,homo,lumo,gap,Mu,alpha,tMu,rotA,rotB,rotC
2-0058,pubchemPCH,CJWHZQNUDAJJSB-UHFFFAOYSA-N,c1ccc2c(c1)cc(c1c2cccc1)Cl,C14H9Cl,r2scan,212.679,9,14,1,-998.987032063622,-998.7917030953,0.0001625819,-998.8401769021,4.746568382252,4.6078909453,0.0010847357,4.2844769208,0.1834533966,-5.654,-2.1297,3.5243,1.83764,179.18556,-0.34292 -0.63647 -0.00002,0.026972,0.016079,0.010074
2-0058,pubchemPCH,CJWHZQNUDAJJSB-UHFFFAOYSA-N,c1ccc2c(c1)cc(c1c2cccc1)Cl,C14H9Cl,d4tzvp,212.679,9,14,1,-999.599977483678,-999.4046485154,0.0001625819,-999.4531223222,4.683052839076,4.544375402,0.0010847357,4.2209613784,0.1834533966,-8.3396,0.3871,8.7267,1.85147,176.17987,-0.36471 -0.63053 -0.00002,0.026972,0.016079,0.010074
2-0059,pubchemPCH,CKAPSXZOOQJIBF-UHFFFAOYSA-N,Clc1c(Cl)c(Cl)c(c(c1Cl)Cl)Cl,C6Cl6,xtb2,284.784,0,6,6,-40.156238507791,-40.102912252511,0.000172267844,-40.154273910171,2.501309469835,2.476309555115,0.00049700545,2.328127380039,0.040030195379,-11.492,-8.0216,3.47041747313,0.0,143.012541,-0.000 0.000 -0.000,0.01538947,0.01538947,0.007694735
2-0059,pubchemPCH,CKAPSXZOOQJIBF-UHFFFAOYSA-N,Clc1c(Cl)c(Cl)c(c(c1Cl)Cl)Cl,C6Cl6,r2scan,284.784,0,6,6,-2989.644456676419,-2989.5896463165,0.0001704467,-2989.6404650076,1.967200422093,1.9407158277,0.0005331727,1.781750289,0.0421742937,-6.7439,-2.3867,4.3572,0.0,147.0805,-0.00000 -0.00000 0.00000,0.015189,0.015188,0.007594
2-0059,pubchemPCH,CKAPSXZOOQJIBF-UHFFFAOYSA-N,Clc1c(Cl)c(Cl)c(c(c1Cl)Cl)Cl,C6Cl6,d4tzvp,284.784,0,6,6,-2990.120294593572,-2990.0654842337003,0.0001704467,-2990.1163029248005,1.969595909394,1.9431113153,0.0005331727,1.7841457766,0.0421742937,-9.7397,0.2886,10.0283,1E-05,141.97435,-0.00001 0.00000 -0.00000,0.015189,0.015188,0.007594
2-0060,pubchemPCH,CMBCCZUPRASOLO-UHFFFAOYSA-N,Clc1c(Cl)c(Cl)c2c(c1)cc1c(c2Cl)cccc1,C14H6Cl4,xtb2,316.014,6,14,4,-51.255591424647,-51.089681578565,0.000198046062,-51.148729011817,5.858445102077,5.749187937115,0.001028795564,5.442452538973,0.149690223848,-10.3809,-8.4081,1.972819133178,4.128,197.256543,-1.381 -0.854 -0.000,0.01792188,0.006509423,0.004775071
2-0060,pubchemPCH,CMBCCZUPRASOLO-UHFFFAOYSA-N,Clc1c(Cl)c(Cl)c2c(c1)cc1c(c2Cl)cccc1,C14H6Cl4,r2scan,316.014,6,14,4,-2377.697854482839,-2377.5282203473,0.0001913419,-2377.5852689216,4.607225993165,4.4942433889,0.0011067111,4.1642773348,0.1539931509,-5.4488,-3.1751,2.2737,3.81137,237.76301,-1.25610 -0.81820 -0.03481,0.017468,0.006431,0.004754
2-0060,pubchemPCH,CMBCCZUPRASOLO-UHFFFAOYSA-N,Clc1c(Cl)c(Cl)c2c(c1)cc1c(c2Cl)cccc1,C14H6Cl4,d4tzvp,316.014,6,14,4,-2378.415079793893,-2378.2454456584,0.0001913419,-2378.3024942327,4.556327262571,4.4433446584,0.0011067111,4.1133786049,0.1539931509,-8.0048,-0.8289,7.1759,4.01976,229.19764,-1.31747 -0.87434 -0.02870,0.017468,0.006431,0.004754
2-0061,pubchemPCH,CNNKPGQCZQTDIX-UHFFFAOYSA-N,Clc1c(Cl)c(Cl)c2c(c1)c(Cl)c1c(c2Cl)c(Cl)c(c(c1Cl)Cl)Cl,C14HCl9,xtb2,488.239,1,14,9,-71.471219654818,-71.34700285437,0.000248262054,-71.421022185776,5.628861477123,5.561297357795,0.001063101552,5.244333629502,0.101377405977,-10.7898,-9.1553,1.634518630941,0.659,260.169126,-0.092 -0.242 0.004,0.007635863,0.003025995,0.002206372
2-0061,pubchemPCH,CNNKPGQCZQTDIX-UHFFFAOYSA-N,Clc1c(Cl)c(Cl)c2c(c1)c(Cl)c1c(c2Cl)c(Cl)c(c(c1Cl)Cl)Cl,C14HCl9,r2scan,488.239,1,14,9,-4675.551082962904,-4675.4239852539,0.0002373276,-4675.4947444902,4.37684645939,4.3064002815,0.0011452844,3.9649335609,0.1051486532,-5.788,-3.8846,1.9034,0.62595,320.82957,-0.01858 -0.24553 0.00431,0.007522,0.002998,0.002214
2-0061,pubchemPCH,CNNKPGQCZQTDIX-UHFFFAOYSA-N,Clc1c(Cl)c(Cl)c2c(c1)c(Cl)c1c(c2Cl)c(Cl)c(c(c1Cl)Cl)Cl,C14HCl9,d4tzvp,488.239,1,14,9,-4676.447623576331,-4676.320525867301,0.0002373276,-4676.3912851036,4.352491233809,4.2820450563,0.0011452844,3.9405783358,0.1051486532,-8.3456,-1.6549,6.6907,0.71159,303.44594,-0.01293 -0.27841 0.02642,0.007522,0.002998,0.002214
2-0062,pubchemPCH,CPEOCXYBTJPYIA-UHFFFAOYSA-N,Clc1cc2c(cc1)cc1c(c2)cc2c(c1)cccc2,C18H11Cl,xtb2,262.739,11,18,1,-48.706499277831,-48.468232668529,0.000186603596,-48.52386853075,7.616329055004,7.448878297102,0.001285213404,7.065691919922,0.223160915008,-9.7672,-8.1383,1.628893317851,2.407,199.909968,-0.894 -0.311 -0.000,0.0483696,0.004709451,0.004291604
2-0062,pubchemPCH,CPEOCXYBTJPYIA-UHFFFAOYSA-N,Clc1cc2c(cc1)cc1c(c2)cc2c(c1)cccc2,C18H11Cl,r2scan,262.739,11,18,1,-1152.58265825127,-1152.3391645443,0.0001796531,-1152.3927281108,6.018786849458,5.8461075567,0.0013817931,5.4341258269,0.2288553876,-4.8656,-3.0663,1.7993,2.23614,268.24398,-0.81717 -0.32586 -0.00007,0.047746,0.004676,0.004259
2-0062,pubchemPCH,CPEOCXYBTJPYIA-UHFFFAOYSA-N,Clc1cc2c(cc1)cc1c(c2)cc2c(c1)cccc2,C18H11Cl,d4tzvp,262.739,11,18,1,-1153.346709780211,-1153.1032160732,0.0001796531,-1153.1567796396998,5.928482249797,5.7558029568,0.0013817931,5.3438212281,0.2288553876,-7.2588,-0.7811,6.4777,2.27199,258.42779,-0.83258 -0.32524 -0.00007,0.047746,0.004676,0.004259
2-0063,pubchemPCH,CRSUMWXUPNRJSN-UHFFFAOYSA-N,c1c(Cl)cc2c(c1)cc(c1c2cccc1)Cl,C14H8Cl2,xtb2,247.124,8,14,2,-43.176671768561,-42.993836901467,0.000177843013,-43.046860795825,5.957610188041,5.831428002067,0.001015189821,5.528749156353,0.169214116613,-10.4961,-7.604,2.8921275169,0.633,172.11915,-0.203 -0.145 0.000,0.02618543,0.009019707,0.006708819
2-0063,pubchemPCH,CRSUMWXUPNRJSN-UHFFFAOYSA-N,c1c(Cl)cc2c(c1)cc(c1c2cccc1)Cl,C14H8Cl2,r2scan,247.124,8,14,2,-1458.569493065317,-1458.3826741549,0.0001732078,-1458.4343160633,4.712307781179,4.5821404021,0.0010910216,4.2568522135,0.1736345219,-5.7342,-2.3109,3.4233,0.60206,197.32992,-0.19770 -0.13045 0.00000,0.02583,0.008934,0.006638
2-0063,pubchemPCH,CRSUMWXUPNRJSN-UHFFFAOYSA-N,c1c(Cl)cc2c(c1)cc(c1c2cccc1)Cl,C14H8Cl2,d4tzvp,247.124,8,14,2,-1459.217321593623,-1459.0305026832,0.0001732078,-1459.0821445916,4.653120986781,4.5229536076,0.0010910216,4.1976654198,0.1736345219,-8.4179,0.1919,8.6098,0.55123,192.14374,-0.18533 -0.11262 0.00000,0.02583,0.008934,0.006638
2-0064,pubchemPCH,CSUOYNMKQMLAAD-UHFFFAOYSA-N,Clc1c(Cl)c(Cl)c2c(c1)cc1c(c2)cc(cc1)Cl,C14H6Cl4,xtb2,316.014,6,14,4,-51.265551235807,-51.099655377694,0.000198730561,-51.15890689444,5.868404913237,5.759161736244,0.001028111065,5.452630421596,0.149656663146,-10.5342,-8.4492,2.085065701387,2.592,197.058219,-0.624 -0.806 0.000,0.02306135,0.004370842,0.003674424
2-0064,pubchemPCH,CSUOYNMKQMLAAD-UHFFFAOYSA-N,Clc1c(Cl)c(Cl)c2c(c1)cc1c(c2)cc(cc1)Cl,C14H6Cl4,r2scan,316.014,6,14,4,-2377.717148548291,-2377.5476877638,0.0001925192,-2377.6050873584,4.626520058617,4.5137108054,0.0011055338,4.1840957716,0.1537280097,-5.5819,-3.1732,2.4087,2.36712,245.02127,-0.52294 -0.77059 0.00008,0.022581,0.004342,0.003642
2-0064,pubchemPCH,CSUOYNMKQMLAAD-UHFFFAOYSA-N,Clc1c(Cl)c(Cl)c2c(c1)cc1c(c2)cc(cc1)Cl,C14H6Cl4,d4tzvp,316.014,6,14,4,-2378.433290495301,-2378.2638297108,0.0001925192,-2378.3212293054,4.574537963979,4.4617287108,0.0011055338,4.1321136776,0.1537280097,-8.149,-0.7967,7.3523,2.4626,234.19731,-0.55250 -0.79586 0.00008,0.022581,0.004342,0.003642
2-0065,pubchemPCH,CTLMCQOGOWNFHA-UHFFFAOYSA-N,Clc1c(Cl)c(Cl)c2c(c1Cl)ccc(c2Cl)Cl,C10H2Cl6,xtb2,334.844,2,10,6,-49.755863758148,-49.654456944059,0.000198677245,-49.71369256476,4.14078370686,4.081866403611,0.000766284611,3.853398646586,0.085393831789,-10.9416,-8.4865,2.455081533936,1.778,182.494806,0.248 0.654 0.000,0.01464906,0.00726796,0.004857813
2-0065,pubchemPCH,CTLMCQOGOWNFHA-UHFFFAOYSA-N,Clc1c(Cl)c(Cl)c2c(c1Cl)ccc(c2Cl)Cl,C10H2Cl6,r2scan,334.844,2,10,6,-3143.245714552922,-3143.1419175431,0.0001912575,-3143.1989409629,3.245050578154,3.1837422167,0.0008264905,2.9373239417,0.0884133407,-6.0837,-3.0518,3.0319,1.79901,203.53693,0.18749 0.67927 -0.06623,0.014344,0.007161,0.004835
2-0065,pubchemPCH,CTLMCQOGOWNFHA-UHFFFAOYSA-N,Clc1c(Cl)c(Cl)c2c(c1Cl)ccc(c2Cl)Cl,C10H2Cl6,d4tzvp,334.844,2,10,6,-3143.878995817557,-3143.7751988078,0.0001912575,-3143.8322222276,3.226994247567,3.1656858864,0.0008264905,2.9192676116,0.0884133407,-8.8437,-0.5987,8.245,1.93305,195.61628,0.20499 0.72893 -0.07074,0.014344,0.007161,0.004835
2-0066,pubchemPCH,CUCJNKWQSRNTGH-UHFFFAOYSA-N,c1ccc(c2c1c1cccc(c1c(c2Cl)Cl)Cl)Cl,C14H6Cl4,xtb2,316.014,6,14,4,-51.256148880073,-51.089959147807,0.000197137897,-51.148735811855,5.859002557503,5.749465506357,0.001029703729,5.442459339011,0.150012273376,-10.514,-7.9653,2.548724124041,4.657,197.113083,0.004 -1.832 -0.037,0.01557367,0.00804915,0.00544057
2-0066,pubchemPCH,CUCJNKWQSRNTGH-UHFFFAOYSA-N,c1ccc(c2c1c1cccc(c1c(c2Cl)Cl)Cl)Cl,C14H6Cl4,r2scan,316.014,6,14,4,-2377.693834672564,-2377.5240251979,0.0001911387,-2377.5810132111,4.60320618289,4.4900482395,0.0011069143,4.1600216243,0.1541765895,-5.83,-2.6322,3.1978,4.5355,223.46096,0.00071 -1.78334 -0.06053,0.014993,0.00793,0.005532
2-0066,pubchemPCH,CUCJNKWQSRNTGH-UHFFFAOYSA-N,c1ccc(c2c1c1cccc(c1c(c2Cl)Cl)Cl)Cl,C14H6Cl4,d4tzvp,316.014,6,14,4,-2378.414425460121,-2378.2446159854,0.0001911387,-2378.3016039986,4.555672928799,4.4425149854,0.0011069143,4.1124883708,0.1541765895,-8.5648,-0.1658,8.399,4.73238,216.02868,0.00065 -1.86081 -0.06151,0.014993,0.00793,0.005532
2-0067,pubchemPCH,CVJSBWLHPFZLAV-UHFFFAOYSA-N,c1ccc2c(c1)c1c(Cl)c(Cl)cc(c1cc2)Cl,C14H7Cl3,xtb2,281.569,7,14,3,-47.213721481753,-47.039210073822,0.000187259348,-47.095041448513,5.905617530208,5.787758803397,0.001022677882,5.482847392355,0.159684509963,-10.5774,-7.7639,2.813496209578,2.48,184.696911,-0.881 0.407 -0.100,0.01548652,0.01028117,0.00624965
2-0067,pubchemPCH,CVJSBWLHPFZLAV-UHFFFAOYSA-N,c1ccc2c(c1)c1c(Cl)c(Cl)cc(c1cc2)Cl,C14H7Cl3,r2scan,281.569,7,14,3,-1918.132291907604,-1917.9536128765,0.0001811874,-1918.007633911,4.658385020698,4.5363575209,0.0010999538,4.2084061927,0.164395878,-5.7824,-2.4614,3.321,2.27323,210.79438,-0.81017 0.35682 -0.12706,0.01535,0.010084,0.006173
2-0067,pubchemPCH,CVJSBWLHPFZLAV-UHFFFAOYSA-N,c1ccc2c(c1)c1c(Cl)c(Cl)cc(c1cc2)Cl,C14H7Cl3,d4tzvp,281.569,7,14,3,-1918.816615816801,-1918.6379367857005,0.0001811874,-1918.6919578202003,4.605139247719,4.4831117479,0.0010999538,4.1551604204,0.164395878,-8.4534,0.0037,8.4571,2.25302,204.70233,-0.79151 0.37744 -0.12937,0.01535,0.010084,0.006173
2-0068,pubchemPCH,CVXDXVLRGPBXHR-UHFFFAOYSA-N,c1cc2ccc3c4c2c2c1ccc1c2c(c4ccc3Cl)ccc1Cl,C22H10Cl2,xtb2,345.228,10,22,2,-61.391923926759,-61.134535554722,0.000204659708,-61.195554846788,9.039525847447,8.86239544033,0.0014968742,8.416102396534,0.239435303414,-10.1074,-7.9626,2.144849993669,0.748,246.840607,-0.000 0.294 -0.000,0.01343947,0.004928863,0.003606277
2-0068,pubchemPCH,CVXDXVLRGPBXHR-UHFFFAOYSA-N,c1cc2ccc3c4c2c2c1ccc1c2c(c4ccc3Cl)ccc1Cl,C22H10Cl2,r2scan,345.228,10,22,2,-1764.62768763948,-1764.3639449168,0.0001980802,-1764.4230025417,7.118230285828,6.9347438992,0.0016071026,6.4555861225,0.2464283117,-5.2593,-2.8252,2.4341,0.72368,309.0482,-0.00000 0.28471 -0.00000,0.013304,0.004876,0.003568
2-0068,pubchemPCH,CVXDXVLRGPBXHR-UHFFFAOYSA-N,c1cc2ccc3c4c2c2c1ccc1c2c(c4ccc3Cl)ccc1Cl,C22H10Cl2,d4tzvp,345.228,10,22,2,-1765.579225815719,-1765.315483093,0.0001980802,-1765.3745407179,7.022478491933,6.8389921052,0.0016071026,6.3598343295,0.2464283117,-7.6397,-0.5834,7.0563,0.68859,296.65886,0.00001 0.27091 0.00003,0.013304,0.004876,0.003568
2-0069,pubchemPCH,CYGWDOOHNAHCQE-UHFFFAOYSA-N,Clc1c(Cl)c(Cl)c2c(c1Cl)ccc1c2cc2c(c1)cc1c(c2)cc2c(c1)cccc2,C26H12Cl4,xtb2,466.194,12,26,4,-80.028638176776,-79.719097662339,0.000257630583,-79.795910220609,10.75103881421,10.540640491733,0.001856276729,9.987191583639,0.284662856274,-9.7699,-8.4615,1.308468815561,4.544,317.282723,-1.631 -0.728 0.079,0.01160729,0.001553573,0.001383181
2-0069,pubchemPCH,CYGWDOOHNAHCQE-UHFFFAOYSA-N,Clc1c(Cl)c(Cl)c2c(c1Cl)ccc1c2cc2c(c1)cc1c(c2)cc2c(c1)cccc2,C26H12Cl4,r2scan,466.194,12,26,4,-2838.517451069461,-2838.2007454456,0.0002466992,-2838.2742988049,8.456599418461,8.2390339744,0.0019937396,7.6446003103,0.2927831808,-4.808,-3.3887,1.4193,3.92972,479.64265,-1.42054 -0.60293 0.09360,0.011366,0.00154,0.001375
2-0069,pubchemPCH,CYGWDOOHNAHCQE-UHFFFAOYSA-N,Clc1c(Cl)c(Cl)c2c(c1Cl)ccc1c2cc2c(c1)cc1c(c2)cc2c(c1)cccc2,C26H12Cl4,d4tzvp,466.194,12,26,4,-2839.706949562623,-2839.3902439387,0.0002466992,-2839.463797298,8.344288373865,8.1267229297,0.0019937396,7.5322892668,0.2927831808,-7.0835,-1.1881,5.8954,3.81152,441.57877,-1.36074 -0.62260 0.09669,0.011366,0.00154,0.001375
2-0070,pubchemPCH,CZDNZASQPLANTI-UHFFFAOYSA-N,Clc1c(Cl)c(Cl)c2c(c1Cl)cc1c(c2)c(Cl)c(cc1)Cl,C14H4Cl6,xtb2,384.904,4,14,6,-59.358288590865,-59.208818935372,0.000219655052,-59.274309089144,5.783057526245,5.690240551872,0.001040995366,5.379867782928,0.130499551375,-10.6816,-8.7389,1.942774354788,2.342,222.163212,-0.489 -0.781 0.000,0.013108,0.003766403,0.002925734
2-0070,pubchemPCH,CZDNZASQPLANTI-UHFFFAOYSA-N,Clc1c(Cl)c(Cl)c2c(c1Cl)cc1c(c2)c(Cl)c(cc1)Cl,C14H4Cl6,r2scan,384.904,4,14,6,-3296.869891054742,-3296.7171940001,0.0002116559,-3296.7802991927,4.545819359532,4.4497738361,0.0011202207,4.1157798689,0.1343223159,-5.7369,-3.4008,2.3361,2.22347,271.58435,-0.38628 -0.78485 -0.00002,0.012897,0.003736,0.002897
2-0070,pubchemPCH,CZDNZASQPLANTI-UHFFFAOYSA-N,Clc1c(Cl)c(Cl)c2c(c1Cl)cc1c(c2)c(Cl)c(cc1)Cl,C14H4Cl6,d4tzvp,384.904,4,14,6,-3297.659733610043,-3297.5070365554,0.0002116559,-3297.570141748,4.506429154241,4.410383631,0.0011202207,4.0763896642,0.1343223159,-8.3134,-1.0641,7.2493,2.32864,258.89099,-0.41521 -0.81665 -0.00002,0.012897,0.003736,0.002897
2-0071,pubchemPCH,DARLUNVQYCQWRW-UHFFFAOYSA-N,c1cc(Cl)c(c2c1ccc(c2Cl)Cl)Cl,C10H4Cl4,xtb2,265.954,4,10,4,-41.666235814059,-41.548259803501,0.000174618215,-41.600322224241,4.229240504821,4.153754005103,0.000756534849,3.928193139439,0.104688838424,-10.7044,-8.0823,2.622045060753,3.614,157.233212,0.000 1.422 -0.000,0.0277822,0.01023112,0.007477459
2-0071,pubchemPCH,DARLUNVQYCQWRW-UHFFFAOYSA-N,c1cc(Cl)c(c2c1ccc(c2Cl)Cl)Cl,C10H4Cl4,r2scan,265.954,4,10,4,-2224.095983589146,-2223.9754336864,0.0001702188,-2224.0261844337,3.328762819914,3.2507015656,0.0008137056,3.0080951495,0.1076831508,-5.9213,-2.6959,3.2254,3.59649,172.20322,0.00007 1.41494 -0.00004,0.027414,0.009956,0.007356
2-0071,pubchemPCH,DARLUNVQYCQWRW-UHFFFAOYSA-N,c1cc(Cl)c(c2c1ccc(c2Cl)Cl)Cl,C10H4Cl4,d4tzvp,265.954,4,10,4,-2224.656227157343,-2224.5356772546,0.0001702188,-2224.5864280019,3.298777511833,3.2207162576,0.0008137056,2.9781098419,0.1076831508,-8.6905,-0.1938,8.4967,3.76823,167.09569,0.00007 1.48251 -0.00004,0.027414,0.009956,0.007356
2-0072,pubchemPCH,DAWDIAKIKRRKPG-UHFFFAOYSA-N,c1ccc2c(c1)c1cc(Cl)c3c(c1cc2Cl)cccc3Cl,C18H9Cl3,xtb2,331.629,9,18,3,-56.814912037352,-56.592093942784,0.000209639877,-56.654598072027,7.546657072475,7.394654829307,0.001295985915,7.008256627827,0.204955839721,-10.3434,-7.9241,2.419301845141,1.522,224.448766,-0.502 0.326 0.000,0.01529157,0.005089026,0.003818299
2-0072,pubchemPCH,DAWDIAKIKRRKPG-UHFFFAOYSA-N,c1ccc2c(c1)c1cc(Cl)c3c(c1cc2Cl)cccc3Cl,C18H9Cl3,r2scan,331.629,9,18,3,-2071.744914212798,-2071.5174552353,0.0002036867,-2071.5781844343,5.94759960545,5.7909550421,0.0013915831,5.3760544134,0.2100525472,-5.5551,-2.6538,2.9013,1.57353,272.04017,-0.51086 0.34925 0.01689,0.014931,0.005049,0.003796
2-0072,pubchemPCH,DAWDIAKIKRRKPG-UHFFFAOYSA-N,c1ccc2c(c1)c1cc(Cl)c3c(c1cc2Cl)cccc3Cl,C18H9Cl3,d4tzvp,331.629,9,18,3,-2072.588215491575,-2072.3607565141,0.0002036867,-2072.4214857131,5.875436036681,5.7187914733,0.0013915831,5.3038908455,0.2100525472,-8.1371,-0.2532,7.8839,1.62671,261.6571,-0.51288 0.38255 0.01372,0.014931,0.005049,0.003796
2-0073,pubchemPCH,DBJDWEXAPDIHCN-UHFFFAOYSA-N,c1ccc2c3c1cc(Cl)c1c3c(cc2)ccc1,C16H9Cl,xtb2,236.701,9,16,1,-43.431917945376,-43.227856901718,0.00017000851,-43.278544939011,6.715305993151,6.572618687373,0.001112526184,6.240919004855,0.191165306155,-10.1212,-7.7424,2.378773818792,2.014,177.309656,0.474 0.635 0.000,0.02146533,0.01480048,0.008760241
2-0073,pubchemPCH,DBJDWEXAPDIHCN-UHFFFAOYSA-N,c1ccc2c3c1cc(Cl)c1c3c(cc2)ccc1,C16H9Cl,r2scan,236.701,9,16,1,-1075.21014253049,-1075.0016524541,0.0001666252,-1075.0513317555,5.305246674584,5.1581290905,0.0011941048,4.8021066408,0.1959569292,-5.3406,-2.5215,2.8191,1.84899,205.98797,0.43151 0.58563 0.00000,0.021228,0.014662,0.008672
2-0073,pubchemPCH,DBJDWEXAPDIHCN-UHFFFAOYSA-N,c1ccc2c3c1cc(Cl)c1c3c(cc2)ccc1,C16H9Cl,d4tzvp,236.701,9,16,1,-1075.892943066177,-1075.6844529898,0.0001666252,-1075.7341322912,5.230396506009,5.0832789218,0.0011941048,4.727256473,0.1959569292,-7.799,-0.179,7.62,1.87043,202.48891,0.44635 0.58504 0.00000,0.021228,0.014662,0.008672
2-0074,pubchemPCH,DFVQWJMAJLJZAA-UHFFFAOYSA-N,c1c(Cl)cc2c3c1ccc1c3c(cc2)ccc1,C16H9Cl,xtb2,236.701,9,16,1,-43.432202450792,-43.228270864317,0.00016794196,-43.27834275963,6.715590498567,6.573032649972,0.001114592734,6.240716825474,0.191013578071,-10.2102,-7.7828,2.427437739503,2.445,177.288958,0.962 -0.000 0.000,0.03414922,0.009892563,0.007670518
2-0074,pubchemPCH,DFVQWJMAJLJZAA-UHFFFAOYSA-N,c1c(Cl)cc2c3c1ccc1c3c(cc2)ccc1,C16H9Cl,r2scan,236.701,9,16,1,-1075.210735170133,-1075.0024435873,0.0001645749,-1075.0515116057,5.305839314227,5.1589202237,0.0011961551,4.802286491,0.1957421605,-5.4175,-2.5541,2.8634,2.27911,209.70332,0.89665 -0.00001 0.00001,0.033843,0.009804,0.007602
2-0074,pubchemPCH,DFVQWJMAJLJZAA-UHFFFAOYSA-N,c1c(Cl)cc2c3c1ccc1c3c(cc2)ccc1,C16H9Cl,d4tzvp,236.701,9,16,1,-1075.892990868716,-1075.6846992859,0.0001645749,-1075.7337673043,5.230444308548,5.0835252179,0.0011961551,4.7268914861,0.1957421605,-7.8739,-0.1973,7.6766,2.2868,205.35377,0.89968 -0.00001 0.00001,0.033843,0.009804,0.007602
2-0075,pubchemPCH,DHSYLWACUVCCJL-UHFFFAOYSA-N,c1c(Cl)cc2c(c1)ccc1c2cccc1Cl,C14H8Cl2,xtb2,247.124,8,14,2,-43.176619330465,-42.99378511056,0.000176906368,-43.046529744048,5.957557749945,5.83137621116,0.001016126466,5.528418104576,0.169287765926,-10.5065,-7.5696,2.936879513339,0.149,172.090875,-0.025 0.053 0.000,0.03585279,0.007649193,0.006304194
2-0075,pubchemPCH,DHSYLWACUVCCJL-UHFFFAOYSA-N,c1c(Cl)cc2c(c1)ccc1c2cccc1Cl,C14H8Cl2,r2scan,247.124,8,14,2,-1458.569536583457,-1458.3826916716,0.0001728587,-1458.4342294995,4.712351299319,4.5821579188,0.0010913707,4.2567656497,0.173700601,-5.7584,-2.2899,3.4685,0.17474,196.82299,0.00034 0.06875 0.00000,0.035508,0.007562,0.006234
2-0075,pubchemPCH,DHSYLWACUVCCJL-UHFFFAOYSA-N,c1c(Cl)cc2c(c1)ccc1c2cccc1Cl,C14H8Cl2,d4tzvp,247.124,8,14,2,-1459.217194890588,-1459.0303499787,0.0001728587,-1459.0818878066,4.652994283746,4.5228009031,0.0010913707,4.1974086348,0.173700601,-8.4329,0.222,8.6549,0.17564,191.81582,-0.01829 0.06664 0.00000,0.035508,0.007562,0.006234
2-0076,pubchemPCH,DKGCEZTVEBKIEK-UHFFFAOYSA-N,c1ccc2c(c1)cc1c(c2)c2cc(Cl)ccc2c2c1cccc2,C22H13Cl,xtb2,312.799,13,22,1,-58.31347193933,-58.026088785389,0.000212760037,-58.089523190561,9.263150703171,9.06074657091,0.001554745525,8.597199191691,0.269132137879,-10.135,-7.5709,2.56415946394,2.243,239.859962,0.301 0.830 0.000,0.009835198,0.006443034,0.003892838
2-0076,pubchemPCH,DKGCEZTVEBKIEK-UHFFFAOYSA-N,c1ccc2c(c1)cc1c(c2)c2cc(Cl)ccc2c2c1cccc2,C22H13Cl,r2scan,312.799,13,22,1,-1306.20543798211,-1305.9129185703,0.0002079524,-1305.9749195654,7.318158859856,7.1106167451,0.0016676224,6.6134149789,0.2743742361,-5.3647,-2.5182,2.8465,2.08234,298.44099,0.26107 0.77653 -0.00000,0.009742,0.006391,0.003859
2-0076,pubchemPCH,DKGCEZTVEBKIEK-UHFFFAOYSA-N,c1ccc2c(c1)cc1c(c2)c2cc(Cl)ccc2c2c1cccc2,C22H13Cl,d4tzvp,312.799,13,22,1,-1307.13817806392,-1306.8456586521002,0.0002079524,-1306.9076596472,7.218647647694,7.0111055327,0.0016676224,6.5139037678,0.2743742361,-7.9176,-0.0768,7.8408,2.09849,286.62781,0.25435 0.78543 -0.00000,0.009742,0.006391,0.003859
2-0077,pubchemPCH,DLDAJQLZVHENOR-UHFFFAOYSA-N,c1c(Cl)c(Cl)c2c(c1)c1cccc(c1cc2)Cl,C14H7Cl3,xtb2,281.569,7,14,3,-47.223923526951,-47.04927835132,0.00018775801,-47.105258402021,5.915819575406,5.797827080895,0.00102217922,5.493064345863,0.159754676685,-10.6804,-7.7756,2.90473673219,2.957,184.523601,-0.613 -0.989 0.000,0.02781533,0.006240357,0.005096876