id,subset,key,smiles,formula,level,mwt,nH,nC,nCl,E,H,S,G,dE,dH,dS,dG,zpe,homo,lumo,gap,Mu,alpha,tMu,rotA,rotB,rotC
2-0420,pubchemPCH,XKIKPGKXWOOWGV-UHFFFAOYSA-N,c1ccc2c(c1)cc1c(c2Cl)cc(cc1)Cl,C14H8Cl2,r2scan,247.124,8,14,2,-1458.56077832204,-1458.3741761832,0.0001725496,-1458.4256218611,4.703593037902,4.5736424304,0.0010916798,4.2481580113,0.1734660998,-5.3337,-2.9141,2.4196,3.02984,205.61602,-0.79367 -0.88937 -0.00003,0.031253,0.008706,0.006809
2-0420,pubchemPCH,XKIKPGKXWOOWGV-UHFFFAOYSA-N,c1ccc2c(c1)cc1c(c2Cl)cc(cc1)Cl,C14H8Cl2,d4tzvp,247.124,8,14,2,-1459.205270409265,-1459.0186682705,0.0001725496,-1459.0701139484,4.641069802423,4.5111191949,0.0010916798,4.1856347766,0.1734660998,-7.8866,-0.5252,7.3614,3.10822,200.41948,-0.81687 -0.90998 -0.00002,0.031253,0.008706,0.006809
2-0421,pubchemPCH,XNNBNESJMHEDOB-UHFFFAOYSA-N,c1c(Cl)c(Cl)cc2c1c(Cl)cc1c2cccc1,C14H7Cl3,xtb2,281.569,7,14,3,-47.224404410994,-47.049870439321,0.000188329578,-47.106020903034,5.916300459449,5.798419168896,0.001021607652,5.493826846876,0.159619981873,-10.6962,-7.8146,2.881507291884,3.538,184.598299,-1.360 -0.299 0.000,0.01686525,0.008295556,0.005560498
2-0421,pubchemPCH,XNNBNESJMHEDOB-UHFFFAOYSA-N,c1c(Cl)c(Cl)cc2c1c(Cl)cc1c2cccc1,C14H7Cl3,r2scan,281.569,7,14,3,-1918.14722348593,-1917.9689802616,0.0001831963,-1918.0236002311,4.673316599024,4.551724906,0.0010979449,4.2243725128,0.1637262706,-5.9064,-2.5016,3.4048,3.28941,214.31639,-1.26266 -0.28363 0.00001,0.016546,0.008247,0.005504
2-0421,pubchemPCH,XNNBNESJMHEDOB-UHFFFAOYSA-N,c1c(Cl)c(Cl)cc2c1c(Cl)cc1c2cccc1,C14H7Cl3,d4tzvp,281.569,7,14,3,-1918.831093700337,-1918.652850476,0.0001831963,-1918.7074704455,4.619617131255,4.4980254382,0.0010979449,4.1706730457,0.1637262706,-8.5961,0.0027,8.5988,3.43712,207.23952,-1.32529 -0.26863 0.00002,0.016546,0.008247,0.005504
2-0422,pubchemPCH,XTTLUUBHRXWFSZ-UHFFFAOYSA-N,c1c(Cl)c(Cl)cc2c1cc(c(c2)Cl)Cl,C10H4Cl4,xtb2,265.954,4,10,4,-41.674378544377,-41.556407400131,0.000173954822,-41.608272030342,4.237383235139,4.161901601733,0.000757198242,3.93614294554,0.104628588033,-11.0713,-8.1634,2.907968966723,0.0,157.127965,0.000 0.000 0.000,0.0339034,0.006667591,0.005571814
2-0422,pubchemPCH,XTTLUUBHRXWFSZ-UHFFFAOYSA-N,c1c(Cl)c(Cl)cc2c1cc(c(c2)Cl)Cl,C10H4Cl4,r2scan,265.954,4,10,4,-2224.112946642842,-2223.9924527216,0.0001691046,-2224.0428712435,3.34572587361,3.2677206008,0.0008148198,3.0247819593,0.1075519333,-6.1763,-2.7752,3.4011,0.0,179.69466,-0.00000 -0.00000 -0.00000,0.03276,0.006641,0.005522
2-0422,pubchemPCH,XTTLUUBHRXWFSZ-UHFFFAOYSA-N,c1c(Cl)c(Cl)cc2c1cc(c(c2)Cl)Cl,C10H4Cl4,d4tzvp,265.954,4,10,4,-2224.671850003041,-2224.5513560818,0.0001691046,-2224.6017746037,3.314400357531,3.2363950848,0.0008148198,2.9934564437,0.1075519333,-8.9561,-0.2218,8.7343,1E-05,172.975,0.00000 0.00000 -0.00000,0.03276,0.006641,0.005522
2-0423,pubchemPCH,XVLHWKWKRUDVKC-UHFFFAOYSA-N,c1cc(Cl)c2c(c1)c1cccc(c1cc2)Cl,C14H8Cl2,xtb2,247.124,8,14,2,-43.175595854374,-42.992672772941,0.00017476941,-43.044780272549,5.956534273854,5.830263873541,0.001018263424,5.526668633077,0.16938465323,-10.5044,-7.5626,2.941802261911,2.76,172.105518,0.000 -1.086 -0.000,0.02871653,0.009102976,0.006911933
2-0423,pubchemPCH,XVLHWKWKRUDVKC-UHFFFAOYSA-N,c1cc(Cl)c2c(c1)c1cccc(c1cc2)Cl,C14H8Cl2,r2scan,247.124,8,14,2,-1458.567996556155,-1458.3810626371,0.0001703938,-1458.4318655559,4.710811272017,4.5805288843,0.0010938356,4.2544017061,0.1737864308,-5.7918,-2.3261,3.4657,2.65473,194.27778,0.00001 -1.04443 -0.00003,0.028464,0.008964,0.006817
2-0423,pubchemPCH,XVLHWKWKRUDVKC-UHFFFAOYSA-N,c1cc(Cl)c2c(c1)c1cccc(c1cc2)Cl,C14H8Cl2,d4tzvp,247.124,8,14,2,-1459.216138618808,-1459.0292046997,0.0001703938,-1459.0800076185,4.651938011966,4.5216556241,0.0010938356,4.1955284467,0.1737864308,-8.4706,0.188,8.6586,2.72111,189.99701,0.00003 -1.07054 -0.00004,0.028464,0.008964,0.006817
2-0424,pubchemPCH,XXDLUMFPBQPJCM-UHFFFAOYSA-N,c1cccc2c1cc1c(c2)c(Cl)c2c(c1Cl)c(Cl)ccc2Cl,C18H8Cl4,xtb2,366.074,8,18,4,-60.83870288985,-60.625005691377,0.000218647798,-60.690195532467,7.481405553948,7.338524206875,0.00130388239,6.949771671581,0.194625164328,-10.0468,-8.6159,1.430908541114,2.016,237.043262,0.790 0.004 -0.069,0.010203,0.005283464,0.003511783
2-0424,pubchemPCH,XXDLUMFPBQPJCM-UHFFFAOYSA-N,c1cccc2c1cc1c(c2)c(Cl)c2c(c1Cl)c(Cl)ccc2Cl,C18H8Cl4,r2scan,366.074,8,18,4,-2531.286377706277,-2531.0679585756,0.0002106409,-2531.1307611573,5.872341496161,5.7247367796,0.0014015407,5.3068672679,0.1999568684,-5.1059,-3.5269,1.579,1.79048,304.08926,0.69997 0.00105 -0.07895,0.010034,0.005204,0.003501
2-0424,pubchemPCH,XXDLUMFPBQPJCM-UHFFFAOYSA-N,c1cccc2c1cc1c(c2)c(Cl)c2c(c1Cl)c(Cl)ccc2Cl,C18H8Cl4,d4tzvp,366.074,8,18,4,-2532.158498170694,-2531.9400790400005,0.0002106409,-2532.0028816217005,5.79844275356,5.650838037,0.0014015407,5.2329685261,0.1999568684,-7.5022,-1.3218,6.1804,1.69144,293.50868,0.66175 0.00130 -0.07010,0.010034,0.005204,0.003501
2-0425,pubchemPCH,XXGAAHHSHZEJMH-UHFFFAOYSA-N,Clc1cc(Cl)c2c(c1)c(Cl)c1c(c2)c(Cl)cc(c1)Cl,C14H5Cl5,xtb2,350.459,5,14,5,-55.319289552932,-55.161539978569,0.00020648465,-55.223103376927,5.833100859337,5.732003966094,0.001037261372,5.422744487397,0.140151725844,-10.6375,-8.6766,1.960898072581,0.156,209.307208,-0.000 -0.061 0.000,0.0120007,0.004986456,0.003522718
2-0425,pubchemPCH,XXGAAHHSHZEJMH-UHFFFAOYSA-N,Clc1cc(Cl)c2c(c1)c(Cl)c1c(c2)c(Cl)cc(c1)Cl,C14H5Cl5,r2scan,350.459,5,14,5,-2837.302334272921,-2837.1410034281,0.0002008994,-2837.2009015782,4.594984180479,4.4903048669,0.0011140654,4.1581461229,0.1442375427,-5.7271,-3.4307,2.2964,0.25428,255.67916,-0.00000 -0.10004 0.00001,0.01182,0.004938,0.003483
2-0425,pubchemPCH,XXGAAHHSHZEJMH-UHFFFAOYSA-N,Clc1cc(Cl)c2c(c1)c(Cl)c1c(c2)c(Cl)cc(c1)Cl,C14H5Cl5,d4tzvp,350.459,5,14,5,-2838.053368210889,-2837.8920373660994,0.0002008994,-2837.9519355162,4.547339717327,4.4426604039,0.0011140654,4.1105016604,0.1442375427,-8.2876,-1.0884,7.1992,0.23841,244.82889,-0.00001 -0.09379 0.00001,0.01182,0.004938,0.003483
2-0426,pubchemPCH,XXWQPOHDPJIYIN-UHFFFAOYSA-N,Clc1cc(Cl)c2c(c1)cc(cc2Cl)Cl,C10H4Cl4,xtb2,265.954,4,10,4,-41.671503022345,-41.553492282818,0.000175611424,-41.605850828907,4.234507713107,4.15898648442,0.00075554164,3.933721744105,0.104688327583,-10.9069,-8.1688,2.73806136561,1.0,157.079676,0.000 -0.394 0.000,0.01742691,0.01046919,0.006540184
2-0426,pubchemPCH,XXWQPOHDPJIYIN-UHFFFAOYSA-N,Clc1cc(Cl)c2c(c1)cc(cc2Cl)Cl,C10H4Cl4,r2scan,265.954,4,10,4,-2224.104983022494,-2223.9844712181,0.0001729697,-2224.0360421273,3.337762253262,3.2597390973,0.0008109547,3.0179528431,0.1074802348,-6.0447,-2.814,3.2307,1.0309,175.27336,0.00003 -0.40558 0.00000,0.017086,0.010315,0.006432
2-0426,pubchemPCH,XXWQPOHDPJIYIN-UHFFFAOYSA-N,Clc1cc(Cl)c2c(c1)cc(cc2Cl)Cl,C10H4Cl4,d4tzvp,265.954,4,10,4,-2224.663429263811,-2224.5429174594,0.0001729697,-2224.5944883686,3.305979618301,3.2279564624,0.0008109547,2.9861702086,0.1074802348,-8.7953,-0.2945,8.5008,1.146,169.72829,0.00003 -0.45086 0.00000,0.017086,0.010315,0.006432
2-0427,pubchemPCH,XYLXEWWJLMKRCG-UHFFFAOYSA-N,c1ccc2c3c1ccc1c3c(cc2)c(cc1Cl)Cl,C16H8Cl2,xtb2,271.146,8,16,2,-47.4826961823,-47.286811794803,0.000179287928,-47.3402664904,6.67704185905,6.542531209433,0.001120151162,6.208558139558,0.181617981221,-10.207,-7.9559,2.251127398963,2.617,189.607254,1.030 0.000 0.000,0.01708495,0.01041868,0.006471969
2-0427,pubchemPCH,XYLXEWWJLMKRCG-UHFFFAOYSA-N,c1ccc2c3c1ccc1c3c(cc2)c(cc1Cl)Cl,C16H8Cl2,r2scan,271.146,8,16,2,-1534.791010759414,-1534.5909847007,0.0001749482,-1534.6431455041,5.26939330074,5.1307397343,0.0012026936,4.7721565209,0.1861201483,-5.3859,-2.6899,2.696,2.46101,225.77674,0.96822 0.00002 0.00002,0.016918,0.010297,0.006401
2-0427,pubchemPCH,XYLXEWWJLMKRCG-UHFFFAOYSA-N,c1ccc2c3c1ccc1c3c(cc2)c(cc1Cl)Cl,C16H8Cl2,d4tzvp,271.146,8,16,2,-1535.508993288461,-1535.3089672298,0.0001749482,-1535.3611280332,5.199170766053,5.0605171996,0.0012026936,4.701933987,0.1861201483,-7.8368,-0.3883,7.4485,2.51647,220.13587,0.99003 0.00001 0.00002,0.016918,0.010297,0.006401
2-0428,pubchemPCH,XZLJCGGEQLNWDT-UHFFFAOYSA-N,c1c(Cl)c(Cl)c(c2c1c(Cl)c(c(c2)Cl)Cl)Cl,C10H2Cl6,xtb2,334.844,2,10,6,-49.764485310857,-49.663040754241,0.000197556631,-49.721942263666,4.149405259569,4.090450213793,0.000767405225,3.861648345492,0.085365219117,-11.1243,-8.5235,2.60087020826,0.0,182.411434,-0.000 0.000 -0.000,0.015063,0.006249984,0.004417191
2-0428,pubchemPCH,XZLJCGGEQLNWDT-UHFFFAOYSA-N,c1c(Cl)c(Cl)c(c2c1c(Cl)c(c(c2)Cl)Cl)Cl,C10H2Cl6,r2scan,334.844,2,10,6,-3143.264003206548,-3143.1602436035,0.0001905062,-3143.217043028,3.26333923178,3.2020682771,0.0008272418,2.9554260068,0.088225692,-6.2421,-3.071,3.1711,0.0,206.67134,0.00000 0.00000 0.00000,0.014726,0.006219,0.004373
2-0428,pubchemPCH,XZLJCGGEQLNWDT-UHFFFAOYSA-N,c1c(Cl)c(Cl)c(c2c1c(Cl)c(c(c2)Cl)Cl)Cl,C10H2Cl6,d4tzvp,334.844,2,10,6,-3143.896583827614,-3143.7928242246,0.0001905062,-3143.8496236491,3.244582257624,3.1833113032,0.0008272418,2.9366690331,0.088225692,-9.0093,-0.5971,8.4122,1E-05,197.97609,-0.00000 0.00000 -0.00000,0.014726,0.006219,0.004373
2-0429,pubchemPCH,XZQDQEYEUZHEDF-UHFFFAOYSA-N,c1cc2ccc3c(c2c2c1ccc1c2cc(cc1Cl)Cl)cc(cc3Cl)Cl,C22H10Cl4,xtb2,416.134,10,22,4,-70.460758289652,-70.198409432174,0.00023330388,-70.267968984145,9.143309940418,8.96594010462,0.00158491487,8.493397735217,0.240546113883,-10.5289,-7.9288,2.600179511074,3.766,276.664604,0.000 -1.482 -0.000,0.007303154,0.004119211,0.003013644
2-0429,pubchemPCH,XZQDQEYEUZHEDF-UHFFFAOYSA-N,c1cc2ccc3c(c2c2c1ccc1c2cc(cc1Cl)Cl)cc(cc3Cl)Cl,C22H10Cl4,r2scan,416.134,10,22,4,-2684.938284728234,-2684.669606704,0.0002248494,-2684.7366455399,7.200840797676,7.0171400704,0.0017014608,6.5098493479,0.2476827887,-5.7176,-2.7922,2.9254,3.45395,330.26525,0.00011 -1.35886 -0.00003,0.007232,0.00401,0.002956
2-0429,pubchemPCH,XZQDQEYEUZHEDF-UHFFFAOYSA-N,c1cc2ccc3c(c2c2c1ccc1c2cc(cc1Cl)Cl)cc(cc3Cl)Cl,C22H10Cl4,d4tzvp,416.134,10,22,4,-2685.973728322536,-2685.7050502983,0.0002248494,-2685.7720891342,7.11237001959,6.9286692923,0.0017014608,6.4213785708,0.2476827887,-8.2954,-0.3458,7.9496,3.52254,316.58051,0.00011 -1.38584 -0.00006,0.007232,0.00401,0.002956
2-0430,pubchemPCH,YAMGFQPDNFWABJ-UHFFFAOYSA-N,c1ccc2c(c1)c1ccccc1c1c2c(Cl)ccc1Cl,C18H10Cl2,xtb2,297.184,10,18,2,-52.756064728737,-52.524972925806,0.00019420266,-52.582874448965,7.576852134885,7.416576183354,0.001294518736,7.030615421451,0.214785655349,-10.4552,-7.4528,3.002456247219,1.076,212.165385,0.000 -0.423 -0.000,0.01169185,0.01028712,0.006012336
2-0430,pubchemPCH,YAMGFQPDNFWABJ-UHFFFAOYSA-N,c1ccc2c(c1)c1ccccc1c1c2c(Cl)ccc1Cl,C18H10Cl2,r2scan,297.184,10,18,2,-1612.154762673923,-1611.9183519791,0.000189829,-1611.9749494864,5.974169669343,5.8085733887,0.001388529,5.394583334,0.2206730781,-5.7521,-2.3105,3.4416,0.83438,241.9312,0.00005 -0.32827 -0.00003,0.011463,0.010172,0.005948
2-0430,pubchemPCH,YAMGFQPDNFWABJ-UHFFFAOYSA-N,c1ccc2c(c1)c1ccccc1c1c2c(Cl)ccc1Cl,C18H10Cl2,d4tzvp,297.184,10,18,2,-1612.965211981721,-1612.7288012869,0.000189829,-1612.7853987942,5.899708489067,5.7341122083,0.001388529,5.3201221546,0.2206730781,-8.4554,0.2331,8.6885,0.74655,235.32421,0.00004 -0.29371 -0.00003,0.011463,0.010172,0.005948
2-0431,pubchemPCH,YBIBTKJSLUJSSJ-UHFFFAOYSA-N,c1cc2ccc3c4c2c(c1)ccc4c(c1c3cccc1)Cl,C20H11Cl,xtb2,286.761,11,20,1,-53.024127783724,-52.771886096559,0.000191250691,-52.828907490001,8.347364818167,8.170660039162,0.001386972565,7.757134167803,0.236380013764,-9.8641,-7.902,1.96211508791,1.839,217.303595,0.296 0.660 0.000,0.01827304,0.007976069,0.005552456
2-0431,pubchemPCH,YBIBTKJSLUJSSJ-UHFFFAOYSA-N,c1cc2ccc3c4c2c(c1)ccc4c(c1c3cccc1)Cl,C20H11Cl,r2scan,286.761,11,20,1,-1228.815699060705,-1228.5583178987,0.0001870481,-1228.6140863029,6.587395484357,6.4055496975,0.0014878105,5.9619588856,0.2418214144,-5.0753,-2.7451,2.3302,1.73387,273.33337,0.29315 0.61594 -0.00001,0.018025,0.007914,0.0055
2-0431,pubchemPCH,YBIBTKJSLUJSSJ-UHFFFAOYSA-N,c1cc2ccc3c4c2c(c1)ccc4c(c1c3cccc1)Cl,C20H11Cl,d4tzvp,286.761,11,20,1,-1229.657733444498,-1229.4003522825,0.0001870481,-1229.4561206867002,6.493883998518,6.3120382115,0.0014878105,5.8684474007,0.2418214144,-7.4396,-0.4977,6.9419,1.78265,265.82653,0.31007 0.62907 -0.00002,0.018025,0.007914,0.0055
2-0432,pubchemPCH,YCFUHBHONRJFHI-UHFFFAOYSA-N,c1c(Cl)cc2c(c1)cc(cc2)Cl,C10H6Cl2,xtb2,197.064,6,10,2,-33.579512029053,-33.44498304114,0.000153768879,-33.490829232449,4.320601461865,4.228561984792,0.000743575393,4.006864981019,0.123836369104,-10.6754,-7.6966,2.978820511457,0.0,132.142243,0.000 0.000 0.000,0.08949861,0.01050412,0.009400788
2-0432,pubchemPCH,YCFUHBHONRJFHI-UHFFFAOYSA-N,c1c(Cl)cc2c(c1)cc(cc2)Cl,C10H6Cl2,r2scan,197.064,6,10,2,-1304.958192657951,-1304.8206884124,0.000150787,-1304.865645554,3.424415094255,3.3293994972,0.0007993138,3.0910840068,0.1271278747,-5.9012,-2.4031,3.4981,0.0,145.93734,-0.00000 -0.00000 -0.00000,0.088586,0.010388,0.009298
2-0432,pubchemPCH,YCFUHBHONRJFHI-UHFFFAOYSA-N,c1c(Cl)cc2c(c1)cc(cc2)Cl,C10H6Cl2,d4tzvp,197.064,6,10,2,-1305.445174047078,-1305.3076698015,0.000150787,-1305.3526269431,3.382276326048,3.2872607289,0.0007993138,3.0489452391,0.1271278747,-8.6765,0.1875,8.864,2E-05,143.05231,-0.00000 -0.00000 -0.00001,0.088586,0.010388,0.009298
2-0433,pubchemPCH,YEHNZDBOITZBHE-UHFFFAOYSA-N,c1c(Cl)c(Cl)cc2-c3c4c(-c12)cccc4ccc3,C16H8Cl2,xtb2,271.146,8,16,2,-47.460363918995,-47.264876353772,0.000181391405,-47.318958201107,6.654709595745,6.520595768402,0.001118047685,6.187249850265,0.18101754372,-10.5423,-8.1099,2.432394039176,3.896,189.566151,-1.533 -0.000 -0.000,0.02581045,0.007057264,0.005541948
2-0433,pubchemPCH,YEHNZDBOITZBHE-UHFFFAOYSA-N,c1c(Cl)c(Cl)cc2-c3c4c(-c12)cccc4ccc3,C16H8Cl2,r2scan,271.146,8,16,2,-1534.764113397541,-1534.564571269,0.0001769042,-1534.6173152617,5.242495938867,5.1043263026,0.0012007376,4.7463262785,0.1854521084,-5.8247,-2.9239,2.9008,3.59297,226.03371,-1.41355 -0.00001 0.00000,0.025397,0.006997,0.005486
2-0433,pubchemPCH,YEHNZDBOITZBHE-UHFFFAOYSA-N,c1c(Cl)c(Cl)cc2-c3c4c(-c12)cccc4ccc3,C16H8Cl2,d4tzvp,271.146,8,16,2,-1535.485324267038,-1535.2857821384998,0.0001769042,-1535.3385261311998,5.17550174463,5.0373321083,0.0012007376,4.679332085,0.1854521084,-8.4977,-0.5394,7.9583,3.56071,217.90954,-1.40086 0.00003 0.00001,0.025397,0.006997,0.005486
2-0434,pubchemPCH,YGIUYXOOOGQGIS-UHFFFAOYSA-N,c1cc2cc3cccc(c3cc2c(c1)Cl)Cl,C14H8Cl2,xtb2,247.124,8,14,2,-43.16957324681,-42.987071471805,0.000174420403,-43.039074914811,5.95051166629,5.824662572405,0.001018612431,5.520963275339,0.16898307658,-10.1914,-8.0431,2.148275596581,3.197,172.138124,0.000 -1.258 0.000,0.02345559,0.01088934,0.007436785
2-0434,pubchemPCH,YGIUYXOOOGQGIS-UHFFFAOYSA-N,c1cc2cc3cccc(c3cc2c(c1)Cl)Cl,C14H8Cl2,r2scan,247.124,8,14,2,-1458.561411199983,-1458.3747670696,0.0001698172,-1458.4253980732,4.704225915845,4.5742333168,0.0010944122,4.2479342234,0.1735759625,-5.3403,-2.8932,2.4471,3.12299,200.66711,0.00002 -1.22865 0.00004,0.023108,0.010755,0.007339
2-0434,pubchemPCH,YGIUYXOOOGQGIS-UHFFFAOYSA-N,c1cc2cc3cccc(c3cc2c(c1)Cl)Cl,C14H8Cl2,d4tzvp,247.124,8,14,2,-1459.205797766128,-1459.0191536357,0.0001698172,-1459.0697846393,4.641597159286,4.5116045601,0.0010944122,4.1853054675,0.1735759625,-7.8908,-0.4883,7.4025,3.19584,196.50636,0.00004 -1.25732 0.00004,0.023108,0.010755,0.007339
2-0435,pubchemPCH,YGPWNYSAIBRIPK-UHFFFAOYSA-N,Clc1cc2c(cc1)cc1c(c2)c2ccccc2c2c1cccc2,C22H13Cl,xtb2,312.799,13,22,1,-58.313388604097,-58.025969580333,0.00021436069,-58.089881219911,9.263067367938,9.060627365854,0.001553144872,8.597557221041,0.269154318783,-10.1798,-7.6424,2.537441128733,2.412,239.857638,-0.906 0.283 0.000,0.01560004,0.004602941,0.003554231
2-0435,pubchemPCH,YGPWNYSAIBRIPK-UHFFFAOYSA-N,Clc1cc2c(cc1)cc1c(c2)c2ccccc2c2c1cccc2,C22H13Cl,r2scan,312.799,13,22,1,-1306.205400607738,-1305.9128222442,0.0002071024,-1305.9745698201,7.318121485484,7.110520419,0.0016684724,6.6130652336,0.2745236343,-5.3966,-2.5671,2.8295,2.24968,301.45982,-0.83788 0.28516 0.00012,0.015457,0.004565,0.003524
2-0435,pubchemPCH,YGPWNYSAIBRIPK-UHFFFAOYSA-N,Clc1cc2c(cc1)cc1c(c2)c2ccccc2c2c1cccc2,C22H13Cl,d4tzvp,312.799,13,22,1,-1307.138091955089,-1306.8455135916,0.0002071024,-1306.9072611675,7.218561538863,7.0109604722,0.0016684724,6.5135052881,0.2745236343,-7.9615,-0.1296,7.8319,2.24907,288.59153,-0.83609 0.28963 0.00013,0.015457,0.004565,0.003524
2-0436,pubchemPCH,YHHFQXKTPZRBJW-UHFFFAOYSA-N,Clc1c(Cl)c2cc(Cl)c3c4c2c(c1)c(Cl)cc4c(cc3Cl)Cl,C16H4Cl6,xtb2,408.926,4,16,6,-63.674320732423,-63.511483938222,0.000223571078,-63.578141655208,6.512496925073,6.411033868752,0.001143485596,6.070103637622,0.143140099494,-10.6954,-8.6922,2.003215176239,1.043,239.310757,0.304 0.275 -0.000,0.007321416,0.004851977,0.002918113
2-0436,pubchemPCH,YHHFQXKTPZRBJW-UHFFFAOYSA-N,Clc1c(Cl)c2cc(Cl)c3c4c2c(c1)c(Cl)cc4c(cc3Cl)Cl,C16H4Cl6,r2scan,408.926,4,16,6,-3373.09562409611,-3372.9294116066,0.000217798,-3372.9943480898,5.107120226364,5.002280229,0.001227491,4.6363036326,0.1469688517,-5.8094,-3.3391,2.4703,1.00797,296.39229,0.25527 0.30347 -0.00017,0.007214,0.004796,0.002889
2-0436,pubchemPCH,YHHFQXKTPZRBJW-UHFFFAOYSA-N,Clc1c(Cl)c2cc(Cl)c3c4c2c(c1)c(Cl)cc4c(cc3Cl)Cl,C16H4Cl6,d4tzvp,408.926,4,16,6,-3373.956692013438,-3373.7904795239,0.000217798,-3373.8554160071,5.05776564207,4.9529256449,0.001227491,4.5869490489,0.1469688517,-8.2732,-1.1099,7.1633,1.09634,283.12195,0.25025 0.35130 -0.00197,0.007214,0.004796,0.002889
2-0437,pubchemPCH,YHLTVAQSEIMREG-UHFFFAOYSA-N,Clc1cc2ccc3c4c2c(c1)c(Cl)cc4ccc3,C16H8Cl2,xtb2,271.146,8,16,2,-47.483882021562,-47.288115833075,0.000181392566,-47.342198026678,6.678227698312,6.543835247705,0.001118046524,6.210489675836,0.181493579809,-10.3734,-8.0117,2.36167887909,3.481,189.530681,1.243 0.574 -0.000,0.01762096,0.009721149,0.006264915
2-0437,pubchemPCH,YHLTVAQSEIMREG-UHFFFAOYSA-N,Clc1cc2ccc3c4c2c(c1)c(Cl)cc4ccc3,C16H8Cl2,r2scan,271.146,8,16,2,-1534.792059786345,-1534.5922434672,0.0001775989,-1534.6451945711,5.270442327671,5.1319985008,0.0012000429,4.7742055879,0.1858789096,-5.5609,-2.7515,2.8094,3.27679,224.85229,1.17404 0.53251 -0.00006,0.017375,0.009644,0.006202
2-0437,pubchemPCH,YHLTVAQSEIMREG-UHFFFAOYSA-N,Clc1cc2ccc3c4c2c(c1)c(Cl)cc4ccc3,C16H8Cl2,d4tzvp,271.146,8,16,2,-1535.509953539861,-1535.3101372208,0.0001775989,-1535.3630883247,5.200131017453,5.0616871906,0.0012000429,4.7038942785,0.1858789096,-8.0251,-0.4074,7.6177,3.33243,219.17359,1.19690 0.53506 -0.00007,0.017375,0.009644,0.006202
2-0438,pubchemPCH,YJAAKPURMNDQAP-UHFFFAOYSA-N,c1ccc2c(c1)ccc1c2ccc2c1c1cc(Cl)ccc1cc2,C22H13Cl,xtb2,312.799,13,22,1,-58.310155097021,-58.022870532225,0.000205933601,-58.084269635256,9.259833860862,9.057528317746,0.001561571961,8.591945636386,0.269500894894,-10.1767,-7.4123,2.764331860528,2.094,239.837999,0.251 0.763 0.183,0.01428398,0.005328755,0.003989075
2-0438,pubchemPCH,YJAAKPURMNDQAP-UHFFFAOYSA-N,c1ccc2c(c1)ccc1c2ccc2c1c1cc(Cl)ccc1cc2,C22H13Cl,r2scan,312.799,13,22,1,-1306.201457454478,-1305.9074955227,0.0001989831,-1305.9668223215,7.314178332224,7.1051936975,0.0016765917,6.605317735,0.2768130373,-5.4567,-2.3017,3.155,1.97302,297.89093,0.21904 0.72508 0.16975,0.014276,0.005218,0.003916
2-0438,pubchemPCH,YJAAKPURMNDQAP-UHFFFAOYSA-N,c1ccc2c(c1)ccc1c2ccc2c1c1cc(Cl)ccc1cc2,C22H13Cl,d4tzvp,312.799,13,22,1,-1307.131442896344,-1306.8374809645,0.0001989831,-1306.8968077633,7.211912480118,7.0029278451,0.0016765917,6.5030518839,0.2768130373,-8.0109,0.1333,8.1442,2.00588,286.03988,0.20447 0.74123 0.17761,0.014276,0.005218,0.003916
2-0439,pubchemPCH,YJPIUEXKPWIALW-UHFFFAOYSA-N,Clc1c(Cl)c(Cl)c2-c3c4c(-c2c1Cl)c(Cl)c(Cl)c(c4c(c(c3Cl)Cl)Cl)Cl,C16Cl10,xtb2,546.706,0,16,10,-79.820338991307,-79.691042296384,0.000262790643,-79.769393326497,6.302345699857,6.234422742814,0.001171883615,5.885025642167,0.104090920176,-11.0967,-9.2819,1.814884732673,0.535,290.224673,0.211 -0.000 0.000,0.004665872,0.003060654,0.001885886