id,subset,key,smiles,formula,level,mwt,nH,nC,nCl,E,H,S,G,dE,dH,dS,dG,zpe,homo,lumo,gap,Mu,alpha,tMu,rotA,rotB,rotC
3-0267,monoCl,GBLFFTLCBFFJLD-UHFFFAOYSA-N,c1ccc2c(c1)cc1-c3c(-c1c2)c1cc(Cl)ccc1c1c3cccc1,C24H13Cl,d4tzvp,336.821,13,24,1,-1383.337159517305,-1383.032403516,0.0002126437,-1383.0958032374,7.672007185513,7.456949442,0.0017763435,6.9273324836,0.2856560401,-7.4935,-0.3588,7.1347,2.3391,326.43045,-0.41046 0.82364 0.00002,0.009179,0.004557,0.003045
3-0268,monoCl,GBVVHTKROUMRGQ-UHFFFAOYSA-N,c1ccc2-c3c4c(-c2c1)c1ccc2c(c1cc4ccc3)cccc2Cl,C24H13Cl,xtb2,336.821,13,24,1,-62.598565467213,-62.298567509385,0.000214735284,-62.362590834221,9.961651488324,9.751353608936,0.001659176534,9.256670123981,0.28095839838,-10.0876,-8.0843,2.003238779395,2.116,257.140941,-0.332 -0.764 0.001,0.01379367,0.004305891,0.00328152
3-0268,monoCl,GBVVHTKROUMRGQ-UHFFFAOYSA-N,c1ccc2-c3c4c(-c2c1)c1ccc2c(c1cc4ccc3)cccc2Cl,C24H13Cl,r2scan,336.821,13,24,1,-1382.401390405083,-1382.0953812235,0.000209727,-1382.1579113226,7.849679108293,7.6333681847,0.0017792602,7.1028816027,0.2873458745,-5.3517,-3.0475,2.3042,2.00938,332.05391,-0.25233 -0.74918 0.00063,0.013649,0.004266,0.00325
3-0268,monoCl,GBVVHTKROUMRGQ-UHFFFAOYSA-N,c1ccc2-c3c4c(-c2c1)c1ccc2c(c1cc4ccc3)cccc2Cl,C24H13Cl,d4tzvp,336.821,13,24,1,-1383.405049941539,-1383.0990407599,0.000209727,-1383.161570859,7.739897609747,7.5235866859,0.0017792602,6.9931001052,0.2873458745,-7.8016,-0.7546,7.047,2.03785,318.34981,-0.28761 -0.74837 0.00064,0.013649,0.004266,0.00325
3-0269,monoCl,GBZOLWMELFRCSH-UHFFFAOYSA-N,Clc1ccc2-c3c4c(-c2c1)cc1c2ccccc2ccc1c4ccc3,C24H13Cl,xtb2,336.821,13,24,1,-62.606721160055,-62.306613900492,0.000214516398,-62.370571964495,9.969807181166,9.759400000043,0.00165939542,9.264651254255,0.281141961641,-10.2456,-7.9491,2.296508627175,2.77,257.137891,0.658 -0.869 0.000,0.01149723,0.00431928,0.003139741
3-0269,monoCl,GBZOLWMELFRCSH-UHFFFAOYSA-N,Clc1ccc2-c3c4c(-c2c1)cc1c2ccccc2ccc1c4ccc3,C24H13Cl,r2scan,336.821,13,24,1,-1382.410986888291,-1382.1049600333,0.0002087996,-1382.167213638,7.859275591501,7.6429469945,0.0017801876,7.1121839181,0.2874396017,-5.5125,-2.8287,2.6838,2.5321,332.18481,0.59182 -0.80133 0.00000,0.011376,0.004285,0.003112
3-0269,monoCl,GBZOLWMELFRCSH-UHFFFAOYSA-N,Clc1ccc2-c3c4c(-c2c1)cc1c2ccccc2ccc1c4ccc3,C24H13Cl,d4tzvp,336.821,13,24,1,-1383.415461984979,-1383.10943513,0.0002087996,-1383.1716887347002,7.750309653187,7.533981056,0.0017801876,7.0032179809,0.2874396017,-8.0042,-0.5042,7.5,2.41775,316.62822,0.52256 -0.79480 -0.00002,0.011376,0.004285,0.003112
3-0270,monoCl,GCHOIMFJYQEMSQ-UHFFFAOYSA-N,Clc1ccc2c(c1)ccc1c2c2ccccc2c2c1cccc2,C22H13Cl,xtb2,312.799,13,22,1,-58.309677164966,-58.022175926009,0.000206096532,-58.083623606988,9.259355928807,9.05683371153,0.00156140903,8.591299608118,0.269670322444,-10.1584,-7.5317,2.62665489818,2.428,239.833219,-0.953 -0.003 -0.068,0.01579685,0.005121764,0.003984946
3-0270,monoCl,GCHOIMFJYQEMSQ-UHFFFAOYSA-N,Clc1ccc2c(c1)ccc1c2c2ccccc2c2c1cccc2,C22H13Cl,r2scan,312.799,13,22,1,-1306.19993524216,-1305.9057510453,0.0001994177,-1305.9652074471,7.312656119906,7.1034492201,0.0016761571,6.6037028606,0.2769786383,-5.42,-2.3818,3.0382,2.26072,292.78699,-0.88755 0.00454 -0.05733,0.015669,0.005051,0.00392
3-0270,monoCl,GCHOIMFJYQEMSQ-UHFFFAOYSA-N,Clc1ccc2c(c1)ccc1c2c2ccccc2c2c1cccc2,C22H13Cl,d4tzvp,312.799,13,22,1,-1307.132011532538,-1306.8378273356,0.0001994177,-1306.8972837374,7.212481116312,7.0032742162,0.0016761571,6.503527858,0.2769786383,-7.9527,0.0418,7.9945,2.27248,281.72972,-0.89186 -0.00357 -0.06242,0.015669,0.005051,0.00392
3-0271,monoCl,GCPZYCWIQJGQSO-UHFFFAOYSA-N,c1ccc2-c3c(-c2c1)cc1c(c3)c2c(Cl)cccc2c2c1cccc2,C24H13Cl,xtb2,336.821,13,24,1,-62.527379826082,-62.227876889626,0.000217058754,-62.292592957075,9.890465847193,9.680662989177,0.001656853064,9.186672246835,0.280208831344,-9.9122,-7.521,2.391217951515,1.671,254.348594,0.295 0.512 0.288,0.01095755,0.005027128,0.003541498
3-0271,monoCl,GCPZYCWIQJGQSO-UHFFFAOYSA-N,c1ccc2-c3c(-c2c1)cc1c(c3)c2c(Cl)cccc2c2c1cccc2,C24H13Cl,r2scan,336.821,13,24,1,-1382.318870886135,-1382.0131113502,0.000210363,-1382.0758310689,7.767159589345,7.5510983114,0.0017786242,7.020801349,0.2870102852,-5.1034,-2.4544,2.649,1.52018,332.65242,0.21996 0.45516 0.31959,0.010752,0.004958,0.003484
3-0271,monoCl,GCPZYCWIQJGQSO-UHFFFAOYSA-N,c1ccc2-c3c(-c2c1)cc1c(c3)c2c(Cl)cccc2c2c1cccc2,C24H13Cl,d4tzvp,336.821,13,24,1,-1383.325452460669,-1383.0196929248,0.000210363,-1383.0824126435,7.660300128877,7.4442388508,0.0017786242,6.9139418897,0.2870102852,-7.6185,0.0137,7.6322,1.57162,314.24324,0.27675 0.44538 0.32765,0.010752,0.004958,0.003484
3-0272,monoCl,GCQBXZCXTRODSA-UHFFFAOYSA-N,c1cc(Cl)c2c(c1)cc1c(c2)c2ccccc2cc1,C18H11Cl,xtb2,262.739,11,18,1,-48.717225258503,-48.478262027119,0.000186690029,-48.533923659188,7.627055035676,7.458907655692,0.001285126971,7.07574704836,0.223885263124,-10.0801,-7.7022,2.377883976544,1.766,199.905282,0.118 -0.685 -0.000,0.02337337,0.007654671,0.005766251
3-0272,monoCl,GCQBXZCXTRODSA-UHFFFAOYSA-N,c1cc(Cl)c2c(c1)cc1c(c2)c2ccccc2cc1,C18H11Cl,r2scan,262.739,11,18,1,-1152.594862529135,-1152.3506407039,0.0001817334,-1152.4048245289,6.030991127323,5.8575837163,0.0013797128,5.446222245,0.2296089637,-5.2836,-2.6005,2.6831,1.61489,243.63289,0.11238 -0.62532 -0.00001,0.023066,0.007584,0.005707
3-0272,monoCl,GCQBXZCXTRODSA-UHFFFAOYSA-N,c1cc(Cl)c2c(c1)cc1c(c2)c2ccccc2cc1,C18H11Cl,d4tzvp,262.739,11,18,1,-1153.364858485894,-1153.1206366606998,0.0001817334,-1153.1748204857,5.94663095548,5.7732235443,0.0013797128,5.3618620741,0.2296089637,-7.8291,-0.188,7.6411,1.6398,236.11054,0.07205 -0.64110 -0.00001,0.023066,0.007584,0.005707
3-0273,monoCl,GCVKIRCRLXYKFK-UHFFFAOYSA-N,c1ccc2c(c1)cc1c(c2)c2ccc3c(c2c(c1)Cl)cccc3,C22H13Cl,xtb2,312.799,13,22,1,-58.303494528406,-58.016516842232,0.000206339211,-58.078036877885,9.253173292247,9.051174627753,0.001561166351,8.585712879015,0.269065142324,-9.9546,-7.8291,2.125519201813,1.916,239.900936,0.388 0.631 -0.139,0.01982454,0.004568588,0.003765105
3-0273,monoCl,GCVKIRCRLXYKFK-UHFFFAOYSA-N,c1ccc2c(c1)cc1c(c2)c2ccc3c(c2c(c1)Cl)cccc3,C22H13Cl,r2scan,312.799,13,22,1,-1306.191452045343,-1305.89795967,0.000200074,-1305.9576117363,7.304172923089,7.0956578448,0.0016755008,6.5961071498,0.2761670984,-5.1411,-2.7212,2.4199,1.78447,313.46748,0.35330 0.58271 -0.16885,0.019376,0.004538,0.003727
3-0273,monoCl,GCVKIRCRLXYKFK-UHFFFAOYSA-N,c1ccc2c(c1)cc1c(c2)c2ccc3c(c2c(c1)Cl)cccc3,C22H13Cl,d4tzvp,312.799,13,22,1,-1307.120183871308,-1306.8266914960002,0.000200074,-1306.8863435623,7.200653455082,6.9921383766,0.0016755008,6.4925876829,0.2761670984,-7.6195,-0.365,7.2545,1.85106,299.67,0.40814 0.57985 -0.16596,0.019376,0.004538,0.003727
3-0274,monoCl,GDBNGLSXJUHFIY-UHFFFAOYSA-N,c1ccc2-c3c4c(-c2c1)cc1ccccc1c4c1c(c3Cl)cccc1,C24H13Cl,xtb2,336.821,13,24,1,-62.602347811321,-62.301975716304,0.000212677827,-62.365385610349,9.965433832432,9.754761815855,0.001661233991,9.259464900109,0.281546952124,-10.1543,-7.7559,2.398419937017,1.905,257.200805,0.473 0.569 0.120,0.00893526,0.007156166,0.004022872
3-0274,monoCl,GDBNGLSXJUHFIY-UHFFFAOYSA-N,c1ccc2-c3c4c(-c2c1)cc1ccccc1c4c1c(c3Cl)cccc1,C24H13Cl,r2scan,336.821,13,24,1,-1382.404731887608,-1382.0977923074,0.0002059405,-1382.1591934616,7.853020590818,7.6357792686,0.0017830467,7.1041637417,0.2886712487,-5.4308,-2.6568,2.774,1.60684,325.92788,0.37096 0.50283 0.09584,0.008833,0.00709,0.003975
3-0274,monoCl,GDBNGLSXJUHFIY-UHFFFAOYSA-N,c1ccc2-c3c4c(-c2c1)cc1ccccc1c4c1c(c3Cl)cccc1,C24H13Cl,d4tzvp,336.821,13,24,1,-1383.409634924843,-1383.1026953446,0.0002059405,-1383.1640964987998,7.744482593051,7.5272412706,0.0017830467,6.995625745,0.2886712487,-7.9735,-0.3371,7.6364,1.59597,312.10539,0.33507 0.52198 0.09752,0.008833,0.00709,0.003975
3-0275,monoCl,GDCQCPYOZTXUSP-UHFFFAOYSA-N,c1ccc2c(c1)cc1c3c2ccc2c3c(cc1)c1c(c2)ccc(c1)Cl,C24H13Cl,xtb2,336.821,13,24,1,-62.617694564437,-62.317604713393,0.000212334213,-62.380912159106,9.980780585548,9.770390812944,0.001661577605,9.274991448866,0.281276814529,-9.7373,-8.0654,1.671884210818,2.446,257.239473,-0.830 -0.486 -0.000,0.02202914,0.003399467,0.002945004
3-0275,monoCl,GDCQCPYOZTXUSP-UHFFFAOYSA-N,c1ccc2c(c1)cc1c3c2ccc2c3c(cc1)c1c(c2)ccc(c1)Cl,C24H13Cl,r2scan,336.821,13,24,1,-1382.42493090983,-1382.1185303009,0.0002063507,-1382.1800537573,7.87321961304,7.6565172621,0.0017826365,7.1250240374,0.2880878576,-4.893,-2.9228,1.9702,2.23573,357.36897,-0.73342 -0.48556 0.00000,0.02178,0.003376,0.002923
3-0275,monoCl,GDCQCPYOZTXUSP-UHFFFAOYSA-N,c1ccc2c(c1)cc1c3c2ccc2c3c(cc1)c1c(c2)ccc(c1)Cl,C24H13Cl,d4tzvp,336.821,13,24,1,-1383.423189677664,-1383.1167890688,0.0002063507,-1383.1783125252,7.758037345872,7.5413349948,0.0017826365,7.0098417714,0.2880878576,-7.1524,-0.7355,6.4169,2.26515,341.18128,-0.74243 -0.49292 0.00002,0.02178,0.003376,0.002923
3-0276,monoCl,GDGBVSSXIMWHGZ-UHFFFAOYSA-N,c1ccc2c(c1)cc1-c3c(-c1c2)c(Cl)cc1c3cccc1,C20H11Cl,xtb2,286.761,11,20,1,-52.940536062471,-52.689466241186,0.000197764802,-52.748429817034,8.263773096914,8.088240183789,0.001380458454,7.676656494836,0.234610210706,-10.0241,-7.8493,2.174800095486,1.981,214.271656,0.153 -0.764 0.000,0.0174682,0.005922039,0.004422672
3-0276,monoCl,GDGBVSSXIMWHGZ-UHFFFAOYSA-N,c1ccc2c(c1)cc1-c3c(-c1c2)c(Cl)cc1c3cccc1,C20H11Cl,r2scan,286.761,11,20,1,-1228.723510229231,-1228.4675659917,0.0001925313,-1228.5249692098,6.495206652883,6.3147977905,0.0014823273,5.8728417925,0.239837871,-5.1805,-2.7343,2.4462,1.94639,286.07648,0.30293 -0.70329 0.00004,0.01739,0.005865,0.004386
3-0276,monoCl,GDGBVSSXIMWHGZ-UHFFFAOYSA-N,c1ccc2c(c1)cc1-c3c(-c1c2)c(Cl)cc1c3cccc1,C20H11Cl,d4tzvp,286.761,11,20,1,-1229.565229062712,-1229.3092848252,0.0001925313,-1229.3666880433,6.401379616732,6.2209707542,0.0014823273,5.7790147573,0.239837871,-7.6892,-0.2599,7.4293,2.01667,270.79347,0.38830 -0.69189 0.00004,0.01739,0.005865,0.004386
3-0277,monoCl,GEARXESAYHIYJX-UHFFFAOYSA-N,c1cc(Cl)c2-c3c(-c2c1)cc1c(c3)ccc2c1c1ccccc1cc2,C24H13Cl,xtb2,336.821,13,24,1,-62.531898569352,-62.232502585476,0.000215593891,-62.296781904069,9.894984590463,9.685288685027,0.001658317927,9.190861193829,0.2802867326,-10.066,-7.5676,2.498434929646,1.95,254.287369,0.565 0.481 -0.195,0.01550355,0.003717837,0.003056974
3-0277,monoCl,GEARXESAYHIYJX-UHFFFAOYSA-N,c1cc(Cl)c2-c3c(-c2c1)cc1c(c3)ccc2c1c1ccccc1cc2,C24H13Cl,r2scan,336.821,13,24,1,-1382.327335544364,-1382.0215567903,0.0002089608,-1382.0838584385,7.775624247574,7.5595437515,0.0017800264,7.0288287186,0.2872320632,-5.2513,-2.4963,2.755,1.75732,339.89716,0.43362 0.50464 -0.18788,0.015415,0.003662,0.00301
3-0277,monoCl,GEARXESAYHIYJX-UHFFFAOYSA-N,c1cc(Cl)c2-c3c(-c2c1)cc1c(c3)ccc2c1c1ccccc1cc2,C24H13Cl,d4tzvp,336.821,13,24,1,-1383.329519859685,-1383.0237411056,0.0002089608,-1383.0860427538,7.664367527893,7.4482870316,0.0017800264,6.917572,0.2872320632,-7.7634,-0.0265,7.7369,1.71397,319.7889,0.39870 0.50836 -0.19314,0.015415,0.003662,0.00301
3-0278,monoCl,GETGQEWOIDBRLP-UHFFFAOYSA-N,c1c2c(cc3c(c2)cc2c(c3)cccc2)c2c(c1)c1ccc(cc1cc2)Cl,C26H15Cl,xtb2,362.859,15,26,1,-67.900877202887,-67.566125595067,0.00022811053,-67.634136749573,10.890404953396,10.654795537536,0.001835083594,10.107665362661,0.313815546569,-9.7085,-8.0416,1.666843371467,2.61,279.853955,-1.001 0.229 0.000,0.02658578,0.002049193,0.001902548
3-0278,monoCl,GETGQEWOIDBRLP-UHFFFAOYSA-N,c1c2c(cc3c(c2)cc2c(c3)cccc2)c2c(c1)c1ccc(cc1cc2)Cl,C26H15Cl,r2scan,362.859,15,26,1,-1459.807775363048,-1459.465857505,0.0002206883,-1459.5316557135,8.597088520352,8.3543108422,0.0019690151,7.7672488244,0.3215868193,-4.8561,-2.9973,1.8588,2.38058,406.04615,-0.91256 0.21073 -0.00001,0.026296,0.002035,0.001889
3-0278,monoCl,GETGQEWOIDBRLP-UHFFFAOYSA-N,c1c2c(cc3c(c2)cc2c(c3)cccc2)c2c(c1)c1ccc(cc1cc2)Cl,C26H15Cl,d4tzvp,362.859,15,26,1,-1460.891828234659,-1460.5499103767,0.0002206883,-1460.6157085852,8.470994932621,8.2282172543,0.0019690151,7.641155238,0.3215868193,-7.2136,-0.7314,6.4822,2.38549,380.47631,-0.91432 0.21167 -0.00001,0.026296,0.002035,0.001889
3-0279,monoCl,GFBLPLXNPXBIRC-UHFFFAOYSA-N,c1cc2c3ccccc3c3c4c2c(c1Cl)ccc4ccc3,C20H11Cl,xtb2,286.761,11,20,1,-53.028544614495,-52.776005561494,0.000192522289,-52.833406081932,8.351781648938,8.174779504097,0.001385700967,7.761632759734,0.236589708977,-10.1162,-7.6045,2.511683626369,2.126,217.275967,-0.638 0.540 0.000,0.01520444,0.008585501,0.005487098
3-0279,monoCl,GFBLPLXNPXBIRC-UHFFFAOYSA-N,c1cc2c3ccccc3c3c4c2c(c1Cl)ccc4ccc3,C20H11Cl,r2scan,286.761,11,20,1,-1228.820537958809,-1228.5628655306,0.0001875873,-1228.6187946916,6.592234382461,6.4100973294,0.0014872713,5.9666672743,0.2421023629,-5.3548,-2.4326,2.9222,2.00737,258.57992,-0.60205 0.51111 -0.00031,0.015063,0.008498,0.005433
3-0279,monoCl,GFBLPLXNPXBIRC-UHFFFAOYSA-N,c1cc2c3ccccc3c3c4c2c(c1Cl)ccc4ccc3,C20H11Cl,d4tzvp,286.761,11,20,1,-1229.665959246445,-1229.4082868182,0.0001875873,-1229.4642159792,6.502109800465,6.3199727472,0.0014872713,5.8765426932,0.2421023629,-7.8394,-0.0789,7.7605,2.04071,251.39032,-0.61571 0.51526 -0.00024,0.015063,0.008498,0.005433
3-0280,monoCl,GFGSEHWEOYUGFV-UHFFFAOYSA-N,c1c2c(Cl)c3c(cc2c2c(c1)cc1c(c2)c2ccccc2cc1)cccc3,C26H15Cl,xtb2,362.859,15,26,1,-67.907580097299,-67.572381786466,0.000227851703,-67.640315771606,10.897107847808,10.661051728935,0.001835342421,10.113844384694,0.314302893373,-10.0091,-7.7145,2.294642810209,2.025,279.890981,0.591 -0.535 0.000,0.01275059,0.003162559,0.002534036
3-0280,monoCl,GFGSEHWEOYUGFV-UHFFFAOYSA-N,c1c2c(Cl)c3c(cc2c2c(c1)cc1c(c2)c2ccccc2cc1)cccc3,C26H15Cl,r2scan,362.859,15,26,1,-1459.814181911627,-1459.4719494813,0.0002210304,-1459.5378497082,8.603495068931,8.3604028185,0.001968673,7.7734428191,0.3218711211,-5.25,-2.6383,2.6117,1.95264,377.4882,0.56255 -0.52315 0.00005,0.012579,0.003144,0.002515
3-0280,monoCl,GFGSEHWEOYUGFV-UHFFFAOYSA-N,c1c2c(Cl)c3c(cc2c2c(c1)cc1c(c2)c2ccccc2cc1)cccc3,C26H15Cl,d4tzvp,362.859,15,26,1,-1460.902745474581,-1460.5605130443,0.0002210304,-1460.6264132712,8.481912172543,8.2388199219,0.001968673,7.651859924,0.3218711211,-7.7456,-0.2804,7.4652,1.92197,355.8616,0.55157 -0.51723 0.00004,0.012579,0.003144,0.002515
3-0281,monoCl,GFOJGWOXFURIMW-UHFFFAOYSA-N,c1cc2ccc3c(c2c2c1cc1c4c(Cl)cccc4ccc1c2)cccc3,C26H15Cl,xtb2,362.859,15,26,1,-67.899270019736,-67.563994317742,0.000224546538,-67.630942868002,10.888797770245,10.652664260211,0.001838647586,10.10447148109,0.314697725522,-9.9325,-7.6063,2.326171754283,1.579,279.832704,-0.081 -0.520 -0.330,0.01380801,0.003375919,0.002842092
3-0281,monoCl,GFOJGWOXFURIMW-UHFFFAOYSA-N,c1cc2ccc3c(c2c2c1cc1c4c(Cl)cccc4ccc1c2)cccc3,C26H15Cl,r2scan,362.859,15,26,1,-1459.8019730093,-1459.4587960908,0.0002168257,-1459.5234426784,8.591286166604,8.347249428,0.0019728777,7.7590357893,0.3233623809,-5.1574,-2.5453,2.6121,1.40536,366.70203,-0.04275 -0.46280 -0.29948,0.013734,0.003306,0.002782
3-0281,monoCl,GFOJGWOXFURIMW-UHFFFAOYSA-N,c1cc2ccc3c(c2c2c1cc1c4c(Cl)cccc4ccc1c2)cccc3,C26H15Cl,d4tzvp,362.859,15,26,1,-1460.89031323078,-1460.5471363123002,0.0002168257,-1460.6117828999002,8.469479928742,8.2254431899,0.0019728777,7.6372295527,0.3233623809,-7.6317,-0.1788,7.4529,1.42801,347.41058,0.00601 -0.46999 -0.30774,0.013734,0.003306,0.002782
3-0282,monoCl,GGEBYBMXMASZKI-UHFFFAOYSA-N,c1ccc2c(c1)cc1-c3cccc4c3c(-c1c2Cl)c1ccccc1c4,C24H13Cl,xtb2,336.821,13,24,1,-62.591086420737,-62.291349006274,0.000212486027,-62.354701715075,9.954172441848,9.744135105825,0.001661425791,9.248781004835,0.280888999135,-9.7988,-8.0663,1.732437925647,1.52,257.196138,0.060 0.572 0.164,0.01161596,0.005761139,0.003909081
3-0282,monoCl,GGEBYBMXMASZKI-UHFFFAOYSA-N,c1ccc2c(c1)cc1-c3cccc4c3c(-c1c2Cl)c1ccccc1c4,C24H13Cl,r2scan,336.821,13,24,1,-1382.390458936264,-1382.0839406491,0.0002054494,-1382.1451953817,7.838747639474,7.6219276103,0.0017835378,7.0901656618,0.2883116524,-5.0026,-3.0242,1.9784,1.4486,339.68919,0.11165 0.51912 0.20700,0.011549,0.005664,0.003868
3-0282,monoCl,GGEBYBMXMASZKI-UHFFFAOYSA-N,c1ccc2c(c1)cc1-c3cccc4c3c(-c1c2Cl)c1ccccc1c4,C24H13Cl,d4tzvp,336.821,13,24,1,-1383.390427691231,-1383.083909404,0.0002054494,-1383.1451641366,7.725275359439,7.50845533,0.0017835378,6.9766933828,0.2883116524,-7.3898,-0.7771,6.6127,1.54079,324.58284,0.09596 0.56136 0.20767,0.011549,0.005664,0.003868
3-0283,monoCl,GGJQKENJMUOLQC-UHFFFAOYSA-N,c1c(Cl)cc2c(c1)c1ccc3c(c1cc2)ccc1c3cccc1,C22H13Cl,xtb2,312.799,13,22,1,-58.315618842236,-58.028214896881,0.00020828842,-58.090316089313,9.265297606077,9.062872682402,0.001559217142,8.597992090443,0.269307991301,-10.2038,-7.5343,2.669564978122,2.517,239.863416,-0.990 0.017 0.000,0.03239003,0.003337217,0.003025494
3-0283,monoCl,GGJQKENJMUOLQC-UHFFFAOYSA-N,c1c(Cl)cc2c(c1)c1ccc3c(c1cc2)ccc1c3cccc1,C22H13Cl,r2scan,312.799,13,22,1,-1306.209377502556,-1305.9159376888,0.0002022058,-1305.9762253592,7.322098380302,7.1136358636,0.001673369,6.6147207727,0.2758598456,-5.4891,-2.2947,3.1944,2.30265,307.96973,-0.90586 -0.01017 0.00001,0.032082,0.00331,0.003
3-0283,monoCl,GGJQKENJMUOLQC-UHFFFAOYSA-N,c1c(Cl)cc2c(c1)c1ccc3c(c1cc2)ccc1c3cccc1,C22H13Cl,d4tzvp,312.799,13,22,1,-1307.140628941061,-1306.8471891273,0.0002022058,-1306.9074767977,7.221098524835,7.0126360079,0.001673369,6.5137209183,0.2758598456,-8.0445,0.1811,8.2256,2.30419,294.48864,-0.90652 0.00074 0.00003,0.032082,0.00331,0.003
3-0284,monoCl,GGMYEUOVDGLXOH-UHFFFAOYSA-N,c1ccc2c(c1)c1-c3c(-c1cc2)c(Cl)c1c(c3)cccc1,C20H11Cl,xtb2,286.761,11,20,1,-52.940452655029,-52.68926470284,0.00019723378,-52.748069954416,8.263689689472,8.088038645443,0.001380989476,7.676296632218,0.23473897478,-9.9652,-7.7755,2.189679395869,2.041,214.167147,0.439 -0.673 0.000,0.02179574,0.00567383,0.004501902
3-0284,monoCl,GGMYEUOVDGLXOH-UHFFFAOYSA-N,c1ccc2c(c1)c1-c3c(-c1cc2)c(Cl)c1c(c3)cccc1,C20H11Cl,r2scan,286.761,11,20,1,-1228.723789089019,-1228.467525331,0.0001920234,-1228.5247771134,6.495485512671,6.3147571298,0.0014828352,5.8726496961,0.2402147921,-5.1454,-2.6783,2.4671,2.12606,284.73574,0.56522 -0.61657 0.00004,0.021558,0.005631,0.004465
3-0284,monoCl,GGMYEUOVDGLXOH-UHFFFAOYSA-N,c1ccc2c(c1)c1-c3c(-c1cc2)c(Cl)c1c(c3)cccc1,C20H11Cl,d4tzvp,286.761,11,20,1,-1229.565988875603,-1229.3097251175998,0.0001920234,-1229.3669768999998,6.402139429623,6.2214110466,0.0014828352,5.779303614,0.2402147921,-7.6546,-0.1979,7.4567,2.20211,269.78188,0.61567 -0.60953 0.00002,0.021558,0.005631,0.004465
3-0285,monoCl,GGQQTEYUACDBIJ-UHFFFAOYSA-N,c1ccc2-c3c4c(-c2c1)cccc4c1c(c3Cl)cc2c(c1)cccc2,C24H13Cl,xtb2,336.821,13,24,1,-62.604975472704,-62.30491338075,0.000213369738,-62.368529568276,9.968061493815,9.757699480301,0.00166054208,9.262608858036,0.281146354964,-10.0961,-7.9289,2.167195493924,1.7,257.230852,-0.324 0.585 0.000,0.01520307,0.004552457,0.00350339
3-0285,monoCl,GGQQTEYUACDBIJ-UHFFFAOYSA-N,c1ccc2-c3c4c(-c2c1)cccc4c1c(c3Cl)cc2c(c1)cccc2,C24H13Cl,r2scan,336.821,13,24,1,-1382.408014634114,-1382.1022423146,0.00020868,-1382.164460256,7.856303337324,7.6402292758,0.0017803072,7.1094305361,0.2870966048,-5.3295,-2.831,2.4985,1.46399,339.96854,-0.28092 0.50282 0.00001,0.015066,0.004507,0.003469
3-0285,monoCl,GGQQTEYUACDBIJ-UHFFFAOYSA-N,c1ccc2-c3c4c(-c2c1)cccc4c1c(c3Cl)cc2c(c1)cccc2,C24H13Cl,d4tzvp,336.821,13,24,1,-1383.411958324595,-1383.1061860051,0.00020868,-1383.1684039465,7.746805992803,7.5307319311,0.0017803072,6.9999331927,0.2870966048,-7.8178,-0.5064,7.3114,1.42133,322.87279,-0.21810 0.51490 0.00001,0.015066,0.004507,0.003469
3-0286,monoCl,GGZQXROJWKAYJU-UHFFFAOYSA-N,c1ccc2c(c1)c1ccc3c(c1cc2)c1c(Cl)cc2c(c1cc3)cccc2,C26H15Cl,xtb2,362.859,15,26,1,-67.900944464516,-67.565791659838,0.000224876085,-67.632838464476,10.890472215025,10.654461602307,0.001838318039,10.106367077564,0.314499320152,-10.0282,-7.571,2.457168656481,1.597,279.921578,0.329 0.377 -0.380,0.01546589,0.003634189,0.003121388
3-0286,monoCl,GGZQXROJWKAYJU-UHFFFAOYSA-N,c1ccc2c(c1)c1ccc3c(c1cc2)c1c(Cl)cc2c(c1cc3)cccc2,C26H15Cl,r2scan,362.859,15,26,1,-1459.800875562085,-1459.4580391813,0.0002166686,-1459.5226389321,8.590188719389,8.3464925185,0.0019730348,7.758232043,0.3229299858,-5.2721,-2.4707,2.8014,1.53353,361.62097,0.37163 0.31180 -0.35871,0.015108,0.003559,0.003077