id,subset,key,smiles,formula,level,mwt,nH,nC,nCl,E,H,S,G,dE,dH,dS,dG,zpe,homo,lumo,gap,Mu,alpha,tMu,rotA,rotB,rotC
3-0286,monoCl,GGZQXROJWKAYJU-UHFFFAOYSA-N,c1ccc2c(c1)c1ccc3c(c1cc2)c1c(Cl)cc2c(c1cc3)cccc2,C26H15Cl,d4tzvp,362.859,15,26,1,-1460.890729066572,-1460.5478926858,0.0002166686,-1460.6124924366002,8.469895764534,8.2261995634,0.0019730348,7.6379390894,0.3229299858,-7.7782,-0.0916,7.6866,1.65155,344.32319,0.43830 0.31387 -0.36272,0.015108,0.003559,0.003077
3-0287,monoCl,GHGVGSMIKRICDB-UHFFFAOYSA-N,c1cc2ccc3c4c2c(-c2cccc(c42)c2c3c(Cl)ccc2)c1,C22H11Cl,xtb2,310.783,11,22,1,-57.294257648523,-57.029058117737,0.000196959384,-57.087781558028,9.030901940236,8.84596037437,0.001487670128,8.40241152446,0.248478042278,-10.2997,-7.8334,2.466275838107,1.707,234.411758,-0.103 -0.663 -0.000,0.01343138,0.007635257,0.004867983
3-0287,monoCl,GHGVGSMIKRICDB-UHFFFAOYSA-N,c1cc2ccc3c4c2c(-c2cccc(c42)c2c3c(Cl)ccc2)c1,C22H11Cl,r2scan,310.783,11,22,1,-1304.993448147318,-1304.7236837912,0.0001964602,-1304.7822583904,7.100712396434,6.9112043764,0.0015918108,6.4366058397,0.2528885774,-5.5811,-2.7813,2.7998,1.63686,282.71591,-0.11208 -0.63410 0.00763,0.013295,0.007536,0.00481
3-0287,monoCl,GHGVGSMIKRICDB-UHFFFAOYSA-N,c1cc2ccc3c4c2c(-c2cccc(c42)c2c3c(Cl)ccc2)c1,C22H11Cl,d4tzvp,310.783,11,22,1,-1305.914355126107,-1305.64459077,0.0001964602,-1305.7031653692002,7.004883764561,6.8153757444,0.0015918108,6.3407772088,0.2528885774,-8.1361,-0.4172,7.7189,1.69043,273.99791,-0.08425 -0.65965 0.00806,0.013295,0.007536,0.00481
3-0288,monoCl,GHYRGCWCHSHTBB-UHFFFAOYSA-N,c1ccc2-c3c(-c2c1)ccc1c3cc(Cl)c2c1cccc2,C20H11Cl,xtb2,286.761,11,20,1,-52.935942502596,-52.684693184764,0.000197449744,-52.743562825855,8.259179537039,8.083467127367,0.001380773512,7.671789503657,0.234771352216,-9.9202,-7.7223,2.197930588944,1.87,214.239743,-0.192 0.710 0.000,0.02047118,0.005848922,0.004549159
3-0288,monoCl,GHYRGCWCHSHTBB-UHFFFAOYSA-N,c1ccc2-c3c(-c2c1)ccc1c3cc(Cl)c2c1cccc2,C20H11Cl,r2scan,286.761,11,20,1,-1228.716489274439,-1228.4603534772,0.0001926604,-1228.5177951876,6.488185698091,6.307585276,0.0014821982,5.8656677703,0.2399989488,-5.0594,-2.6207,2.4387,1.74442,276.59999,-0.09220 0.68007 0.00008,0.020201,0.005798,0.004505
3-0288,monoCl,GHYRGCWCHSHTBB-UHFFFAOYSA-N,c1ccc2-c3c(-c2c1)ccc1c3cc(Cl)c2c1cccc2,C20H11Cl,d4tzvp,286.761,11,20,1,-1229.561689428388,-1229.3055536312002,0.0001926604,-1229.3629953416005,6.397839982408,6.2172395602,0.0014821982,5.7753220556,0.2399989488,-7.6389,-0.1024,7.5365,1.77722,263.44244,-0.09467 0.69276 0.00008,0.020201,0.005798,0.004505
3-0289,monoCl,GIFQYLBQMVNTGE-UHFFFAOYSA-N,c1ccc2c(c1Cl)cc1-c3cccc4c3c(-c1c2)ccc4,C20H11Cl,xtb2,286.761,11,20,1,-53.008474317997,-52.756687732175,0.000192665417,-52.814130926131,8.33171135244,8.155461674778,0.001385557839,7.742357603933,0.235825248903,-10.1259,-7.7665,2.35945541276,2.034,217.177704,0.417 0.683 -0.000,0.02152915,0.005985391,0.004683356
3-0289,monoCl,GIFQYLBQMVNTGE-UHFFFAOYSA-N,c1ccc2c(c1Cl)cc1-c3cccc4c3c(-c1c2)ccc4,C20H11Cl,r2scan,286.761,11,20,1,-1228.797588837502,-1228.5405744126,0.0001857412,-1228.5959531589,6.569285261154,6.3878062114,0.0014891174,5.9438257416,0.2414753216,-5.3281,-2.6818,2.6463,1.9612,274.60325,0.42708 0.64260 0.00000,0.021326,0.005917,0.004632
3-0289,monoCl,GIFQYLBQMVNTGE-UHFFFAOYSA-N,c1ccc2c(c1Cl)cc1-c3cccc4c3c(-c1c2)ccc4,C20H11Cl,d4tzvp,286.761,11,20,1,-1229.640959593716,-1229.3839451688002,0.0001857412,-1229.4393239151002,6.477110147736,6.2956310978,0.0014891174,5.8516506291,0.2414753216,-7.8622,-0.3014,7.5608,1.9153,262.6355,0.37470 0.65375 -0.00000,0.021326,0.005917,0.004632
3-0290,monoCl,GIPYKZURXWOABW-UHFFFAOYSA-N,c1ccc2c(c1)cc1c(c2)c2-c3cccc4c3c(-c2cc1Cl)ccc4,C24H13Cl,xtb2,336.821,13,24,1,-62.595035500419,-62.29538336765,0.000213777779,-62.359121212499,9.95812152153,9.748169467201,0.001660134039,9.253200502259,0.28068091902,-9.8066,-8.1718,1.63484344172,2.401,257.156139,-0.444 -0.834 0.000,0.0122161,0.00472906,0.003409273
3-0290,monoCl,GIPYKZURXWOABW-UHFFFAOYSA-N,c1ccc2c(c1)cc1c(c2)c2-c3cccc4c3c(-c2cc1Cl)ccc4,C24H13Cl,r2scan,336.821,13,24,1,-1382.39797240866,-1382.0920924836,0.0002083496,-1382.1542119022,7.84626111187,7.6300794448,0.0017806376,7.0991821823,0.2873456803,-5.0005,-3.1244,1.8761,2.11745,337.79099,-0.38981 -0.73622 -0.00005,0.012038,0.004698,0.003379
3-0290,monoCl,GIPYKZURXWOABW-UHFFFAOYSA-N,c1ccc2c(c1)cc1c(c2)c2-c3cccc4c3c(-c2cc1Cl)ccc4,C24H13Cl,d4tzvp,336.821,13,24,1,-1383.398688538017,-1383.0928086129,0.0002083496,-1383.1549280314998,7.733536206225,7.5173545389,0.0017806376,6.9864572777,0.2873456803,-7.4848,-0.8752,6.6096,2.0337,321.57425,-0.34221 -0.72323 -0.00005,0.012038,0.004698,0.003379
3-0291,monoCl,GJADXQFWFMFTJZ-UHFFFAOYSA-N,c1ccc2c(c1)c1c3ccc4c(c3ccc1cc2)c1c(cc4)ccc(c1)Cl,C26H15Cl,xtb2,362.859,15,26,1,-67.90128604226,-67.565862280742,0.000223963043,-67.632636862002,10.890813792769,10.654532223211,0.001839231081,10.10616547509,0.314934653202,-10.0732,-7.4777,2.595532961942,2.108,279.791187,-0.310 -0.669 0.379,0.01224112,0.00342348,0.00287872
3-0291,monoCl,GJADXQFWFMFTJZ-UHFFFAOYSA-N,c1ccc2c(c1)c1c3ccc4c(c3ccc1cc2)c1c(cc4)ccc(c1)Cl,C26H15Cl,r2scan,362.859,15,26,1,-1459.805995089874,-1459.4625956546,0.0002160269,-1459.5270040832,8.595308247178,8.3510489918,0.0019736765,7.7625971941,0.3236909246,-5.3501,-2.4205,2.9296,1.94136,358.79332,-0.26864 -0.63216 0.33400,0.012237,0.003358,0.002819
3-0291,monoCl,GJADXQFWFMFTJZ-UHFFFAOYSA-N,c1ccc2c(c1)c1c3ccc4c(c3ccc1cc2)c1c(cc4)ccc(c1)Cl,C26H15Cl,d4tzvp,362.859,15,26,1,-1460.894450318702,-1460.5510508833995,0.0002160269,-1460.6154593119998,8.473617016664,8.229357761,0.0019736765,7.6409059648,0.3236909246,-7.8686,-0.0274,7.8412,1.96228,341.12157,-0.24919 -0.64384 0.34548,0.012237,0.003358,0.002819
3-0292,monoCl,GJKVOZNMBFDBHO-UHFFFAOYSA-N,c1ccc2c(c1Cl)ccc1-c3c4c(-c21)cccc4ccc3,C20H11Cl,xtb2,286.761,11,20,1,-53.004119022517,-52.752251170272,0.000192985662,-52.809789845377,8.32735605696,8.151025112875,0.001385237594,7.738016523179,0.235823339266,-10.1174,-8.0402,2.077176282473,2.631,217.151588,-0.893 -0.523 0.000,0.02339229,0.006005016,0.004778365
3-0292,monoCl,GJKVOZNMBFDBHO-UHFFFAOYSA-N,c1ccc2c(c1Cl)ccc1-c3c4c(-c21)cccc4ccc3,C20H11Cl,r2scan,286.761,11,20,1,-1228.792823171653,-1228.5356874762,0.0001888681,-1228.5919985086,6.564519595305,6.382919275,0.0014859905,5.9398710913,0.2414734998,-5.3775,-2.9659,2.4116,2.4121,264.39007,-0.82890 -0.46204 -0.00000,0.023238,0.005932,0.004726
3-0292,monoCl,GJKVOZNMBFDBHO-UHFFFAOYSA-N,c1ccc2c(c1Cl)ccc1-c3c4c(-c21)cccc4ccc3,C20H11Cl,d4tzvp,286.761,11,20,1,-1229.637072639512,-1229.379936944,0.0001888681,-1229.4362479764,6.473223193532,6.291622873,0.0014859905,5.8485746904,0.2414734998,-8.0169,-0.6303,7.3866,2.24807,255.1827,-0.75348 -0.46314 -0.00001,0.023238,0.005932,0.004726
3-0293,monoCl,GJPUFFWLSPUUEU-UHFFFAOYSA-N,c1c(Cl)cc2-c3c4c(-c2c1)cccc4c1c(c3)cccc1,C20H11Cl,xtb2,286.761,11,20,1,-53.012045852696,-52.760097611213,0.00019365776,-52.817836672473,8.335282887139,8.158871553816,0.001384565496,7.746063350275,0.235943363542,-10.379,-7.8657,2.513371849109,2.683,217.174674,0.848 -0.628 -0.000,0.01925518,0.005909769,0.004521911
3-0293,monoCl,GJPUFFWLSPUUEU-UHFFFAOYSA-N,c1c(Cl)cc2-c3c4c(-c2c1)cccc4c1c(c3)cccc1,C20H11Cl,r2scan,286.761,11,20,1,-1228.801286281096,-1228.5442773059,0.0001889877,-1228.6006240027,6.572982704748,6.3915091047,0.0014858709,5.9484965854,0.2413483472,-5.6631,-2.7381,2.925,2.48976,270.12588,0.78177 -0.59018 -0.00000,0.019059,0.005856,0.00448
3-0293,monoCl,GJPUFFWLSPUUEU-UHFFFAOYSA-N,c1c(Cl)cc2-c3c4c(-c2c1)cccc4c1c(c3)cccc1,C20H11Cl,d4tzvp,286.761,11,20,1,-1229.64660076803,-1229.3895917928005,0.0001889877,-1229.4459384896002,6.48275132205,6.3012777218,0.0014858709,5.8582652036,0.2413483472,-8.2961,-0.3689,7.9272,2.36763,259.36556,0.72460 -0.58533 0.00000,0.019059,0.005856,0.00448
3-0294,monoCl,GJQMKLZGRJWPCO-UHFFFAOYSA-N,Clc1ccc2c(c1)ccc1c2ccc2c1c1ccccc1cc2,C22H13Cl,xtb2,312.799,13,22,1,-58.310021479174,-58.022730501657,0.000205675074,-58.084052524877,9.259700243015,9.057388287178,0.001561830488,8.591728526007,0.269514560464,-10.235,-7.48,2.75499969803,2.548,239.838286,0.944 -0.337 -0.011,0.02208984,0.004011435,0.003445835
3-0294,monoCl,GJQMKLZGRJWPCO-UHFFFAOYSA-N,Clc1ccc2c(c1)ccc1c2ccc2c1c1ccccc1cc2,C22H13Cl,r2scan,312.799,13,22,1,-1306.201324878286,-1305.9074215629,0.0001991012,-1305.9667835911,7.314045756032,7.1051197377,0.0016764736,6.6052790046,0.2767491036,-5.4999,-2.3152,3.1847,2.34556,302.70828,0.86552 -0.31980 0.01217,0.022082,0.003946,0.003393
3-0294,monoCl,GJQMKLZGRJWPCO-UHFFFAOYSA-N,Clc1ccc2c(c1)ccc1c2ccc2c1c1ccccc1cc2,C22H13Cl,d4tzvp,312.799,13,22,1,-1307.131321226298,-1306.8374179109,0.0001991012,-1306.8967799391,7.211790810072,7.0028647915,0.0016764736,6.5030240597,0.2767491036,-8.0526,0.1189,8.1715,2.35769,289.56468,0.86796 -0.32710 0.00579,0.022082,0.003946,0.003393
3-0295,monoCl,GLJWZWHBJMENAU-UHFFFAOYSA-N,c1ccc2c(c1)cc1c(c2)cc2c(c1)c1cc3ccccc3cc1c(c2)Cl,C26H15Cl,xtb2,362.859,15,26,1,-67.900400988001,-67.565773709787,0.000227591213,-67.633630030047,10.88992873851,10.654443652256,0.001835602911,10.107158643135,0.313745272346,-9.8018,-7.9614,1.840431583372,2.132,279.883727,-0.403 0.736 -0.000,0.01244508,0.002828865,0.002304935
3-0295,monoCl,GLJWZWHBJMENAU-UHFFFAOYSA-N,c1ccc2c(c1)cc1c(c2)cc2c(c1)c1cc3ccccc3cc1c(c2)Cl,C26H15Cl,r2scan,362.859,15,26,1,-1459.806140303478,-1459.4644649806,0.0002211421,-1459.530398488,8.595453460782,8.3529183178,0.0019685613,7.7659915989,0.3213161814,-4.9548,-2.9127,2.0421,1.98594,411.85166,-0.34814 0.69946 -0.00009,0.012274,0.002811,0.002287
3-0295,monoCl,GLJWZWHBJMENAU-UHFFFAOYSA-N,c1ccc2c(c1)cc1c(c2)cc2c(c1)c1cc3ccccc3cc1c(c2)Cl,C26H15Cl,d4tzvp,362.859,15,26,1,-1460.889828979285,-1460.5481536564002,0.0002211421,-1460.6140871638,8.468995677247,8.226460534,0.0019685613,7.6395338166,0.3213161814,-7.3632,-0.6183,6.7449,1.99114,381.58538,-0.38007 0.68498 -0.00009,0.012274,0.002811,0.002287
3-0296,monoCl,GMGKJCMUUVNIDZ-UHFFFAOYSA-N,c1ccc2c(c1)c1c(cc2)cc2c(c1)c1cccc(c1cc2)Cl,C22H13Cl,xtb2,312.799,13,22,1,-58.315115751034,-58.027893269023,0.000207201723,-58.089670462839,9.264794514875,9.062551054544,0.001560303839,8.597346463969,0.26923566171,-10.1492,-7.5717,2.577500605516,2.232,239.882825,-0.838 -0.261 -0.000,0.02225558,0.004009675,0.003397555
3-0296,monoCl,GMGKJCMUUVNIDZ-UHFFFAOYSA-N,c1ccc2c(c1)c1c(cc2)cc2c(c1)c1cccc(c1cc2)Cl,C22H13Cl,r2scan,312.799,13,22,1,-1306.207703727473,-1305.9144254414,0.0002016273,-1305.9745406332,7.320424605219,7.1121236162,0.0016739475,6.6130360467,0.2757897896,-5.3925,-2.4896,2.9029,2.13051,305.68303,-0.79342 -0.27026 -0.00001,0.022022,0.003975,0.003367
3-0296,monoCl,GMGKJCMUUVNIDZ-UHFFFAOYSA-N,c1ccc2c(c1)c1c(cc2)cc2c(c1)c1cccc(c1cc2)Cl,C22H13Cl,d4tzvp,312.799,13,22,1,-1307.138339509597,-1306.8450612235,0.0002016273,-1306.9051764152998,7.218809093371,7.0105081041,0.0016739475,6.5114205359,0.2757897896,-7.9252,-0.0686,7.8566,2.07828,292.06152,-0.77183 -0.26986 -0.00001,0.022022,0.003975,0.003367
3-0297,monoCl,GMQYZQXBYVHEAE-UHFFFAOYSA-N,c1cc2c(cc1)c(Cl)c1-c3c4c(-c1c2)cccc4c1c(c3)cccc1,C24H13Cl,xtb2,336.821,13,24,1,-62.608836766269,-62.308704691813,0.000213315852,-62.372304813147,9.97192278738,9.761490791364,0.001660595966,9.266384102907,0.281226379245,-10.0659,-7.7192,2.346731290049,1.508,257.202102,-0.072 -0.589 -0.000,0.01510187,0.004547313,0.003494951
3-0297,monoCl,GMQYZQXBYVHEAE-UHFFFAOYSA-N,c1cc2c(cc1)c(Cl)c1-c3c4c(-c1c2)cccc4c1c(c3)cccc1,C24H13Cl,r2scan,336.821,13,24,1,-1382.412623530434,-1382.1064272782,0.0002074866,-1382.1682894105,7.860912233644,7.6444142394,0.0017815006,7.1132596906,0.2877244776,-5.3035,-2.6119,2.6916,1.31894,337.85057,-0.09801 -0.50956 0.00000,0.014975,0.004496,0.003458
3-0297,monoCl,GMQYZQXBYVHEAE-UHFFFAOYSA-N,c1cc2c(cc1)c(Cl)c1-c3c4c(-c1c2)cccc4c1c(c3)cccc1,C24H13Cl,d4tzvp,336.821,13,24,1,-1383.416876225824,-1383.1106799736,0.0002074866,-1383.1725421059,7.751723894032,7.5352258996,0.0017815006,7.0040713521,0.2877244776,-7.8147,-0.2752,7.5395,1.32531,320.53724,-0.06494 -0.51735 0.00001,0.014975,0.004496,0.003458
3-0298,monoCl,GMROESLWNYIZEX-UHFFFAOYSA-N,c1ccc2c(c1Cl)c1cccc3c1c1c2cccc1cc3,C20H11Cl,xtb2,286.761,11,20,1,-53.020696931977,-52.768311116222,0.000190471329,-52.825100143101,8.34393396642,8.167085058825,0.001387751927,7.753326820903,0.236598526337,-10.1176,-7.535,2.582604234783,1.772,217.271551,0.249 0.622 -0.195,0.01513154,0.009680203,0.006027544
3-0298,monoCl,GMROESLWNYIZEX-UHFFFAOYSA-N,c1ccc2c(c1Cl)c1cccc3c1c1c2cccc1cc3,C20H11Cl,r2scan,286.761,11,20,1,-1228.80829059093,-1228.5503893215,0.0001857263,-1228.6057636273,6.579987014582,6.3976211203,0.0014891323,5.95363621,0.2425907559,-5.3529,-2.3601,2.9928,1.57912,254.30094,0.18338 0.55634 -0.20695,0.014996,0.009503,0.005937
3-0298,monoCl,GMROESLWNYIZEX-UHFFFAOYSA-N,c1ccc2c(c1Cl)c1cccc3c1c1c2cccc1cc3,C20H11Cl,d4tzvp,286.761,11,20,1,-1229.653799316636,-1229.3958980472,0.0001857263,-1229.451272353,6.489949870656,6.3075839762,0.0014891323,5.863599067,0.2425907559,-7.8434,0.0234,7.8668,1.60913,247.81756,0.17017 0.57193 -0.21147,0.014996,0.009503,0.005937
3-0299,monoCl,GMXDGYHZYHGQRN-UHFFFAOYSA-N,c1ccc2c(c1)c1c3ccccc3c3c(c1cc2)ccc1c3c(Cl)ccc1,C26H15Cl,xtb2,362.859,15,26,1,-67.896827750163,-67.561530434203,0.000223508729,-67.628169561716,10.886355500672,10.650200376672,0.001839685395,10.101698174804,0.314749394403,-10.0387,-7.4899,2.548807816417,1.543,279.883625,0.042 -0.471 0.381,0.01182299,0.004502786,0.003649535
3-0299,monoCl,GMXDGYHZYHGQRN-UHFFFAOYSA-N,c1ccc2c(c1)c1c3ccccc3c3c(c1cc2)ccc1c3c(Cl)ccc1,C26H15Cl,r2scan,362.859,15,26,1,-1459.794994859408,-1459.4517787366,0.0002155729,-1459.5160518086,8.584308016712,8.3402320738,0.0019741305,7.7516449195,0.3234555116,-5.2936,-2.4582,2.8354,1.40536,346.55727,0.13257 -0.43989 0.30760,0.011736,0.004386,0.003571
3-0299,monoCl,GMXDGYHZYHGQRN-UHFFFAOYSA-N,c1ccc2c(c1)c1c3ccccc3c3c(c1cc2)ccc1c3c(Cl)ccc1,C26H15Cl,d4tzvp,362.859,15,26,1,-1460.885209036718,-1460.5419929139,0.0002155729,-1460.6062659859,8.46437573468,8.2202997915,0.0019741305,7.6317126387,0.3234555116,-7.8046,-0.0799,7.7247,1.51091,332.03962,0.17890 -0.47409 0.31077,0.011736,0.004386,0.003571
3-0300,monoCl,GOJDVVRGLYXIGH-UHFFFAOYSA-N,c1c(Cl)cc2c3c1ccc1c3c(cc2)c2c(c1)c1ccccc1cc2,C24H13Cl,xtb2,336.821,13,24,1,-62.622521407562,-62.322249032823,0.000211833916,-62.38540731487,9.985607428673,9.775035132374,0.001662077902,9.27948660463,0.281463901436,-9.9755,-7.9287,2.046785401002,2.838,257.237874,1.116 0.036 0.000,0.02356048,0.003330142,0.002917736
3-0300,monoCl,GOJDVVRGLYXIGH-UHFFFAOYSA-N,c1c(Cl)cc2c3c1ccc1c3c(cc2)c2c(c1)c1ccccc1cc2,C24H13Cl,r2scan,336.821,13,24,1,-1382.430669420087,-1382.1243395001,0.0002068348,-1382.1860072849,7.878958123297,7.6623264613,0.0017821524,7.130977565,0.2879478627,-5.1804,-2.7439,2.4365,2.57781,346.96443,1.01322 0.04387 -0.00000,0.023344,0.003304,0.002894
3-0300,monoCl,GOJDVVRGLYXIGH-UHFFFAOYSA-N,c1c(Cl)cc2c3c1ccc1c3c(cc2)c2c(c1)c1ccccc1cc2,C24H13Cl,d4tzvp,336.821,13,24,1,-1383.431464753151,-1383.1251348332,0.0002068348,-1383.186802618,7.766312421359,7.5496807592,0.0017821524,7.0183318642,0.2879478627,-7.5233,-0.4751,7.0482,2.5453,330.96706,1.00038 0.04461 -0.00002,0.023344,0.003304,0.002894
3-0301,monoCl,GONGWNJXDMOTBB-UHFFFAOYSA-N,c1ccc2-c3c4c(-c2c1)c1c(Cl)c2ccccc2cc1cc4ccc3,C24H13Cl,xtb2,336.821,13,24,1,-62.580534161964,-62.281131207262,0.000212148085,-62.344383158835,9.943620183075,9.733917306813,0.001661763733,9.238462448595,0.280554802249,-9.6865,-8.3463,1.340220261356,1.881,257.222015,0.127 -0.694 0.224,0.01269399,0.005491563,0.00393272
3-0301,monoCl,GONGWNJXDMOTBB-UHFFFAOYSA-N,c1ccc2-c3c4c(-c2c1)c1c(Cl)c2ccccc2cc1cc4ccc3,C24H13Cl,r2scan,336.821,13,24,1,-1382.377392085371,-1382.0711378831,0.0002054573,-1382.1323949695,7.825680788581,7.6091248443,0.0017835299,7.0773652496,0.2880460312,-4.8677,-3.3681,1.4996,2.0909,340.82683,0.26558 -0.72733 0.27775,0.012547,0.005401,0.003885
3-0301,monoCl,GONGWNJXDMOTBB-UHFFFAOYSA-N,c1ccc2-c3c4c(-c2c1)c1c(Cl)c2ccccc2cc1cc4ccc3,C24H13Cl,d4tzvp,336.821,13,24,1,-1383.375301058041,-1383.0690468557,0.0002054573,-1383.1303039421,7.710148726249,7.4935927817,0.0017835299,6.9618331883,0.2880460312,-7.1914,-1.1968,5.9946,2.2068,329.37254,0.24721 -0.78006 0.29014,0.012547,0.005401,0.003885
3-0302,monoCl,GOTMQPCSPBTCOM-UHFFFAOYSA-N,c1ccc2c(c1)c1c(cc2)c2cccc3c2c2c1cc(Cl)cc2cc3,C24H13Cl,xtb2,336.821,13,24,1,-62.617862858013,-62.317421638108,0.000210538086,-62.380193568529,9.980948879124,9.770207737659,0.001663373732,9.274272858289,0.281843040264,-10.0288,-7.752,2.276804994532,2.334,257.211301,-0.164 0.883 -0.193,0.008818463,0.006938175,0.003998742
3-0302,monoCl,GOTMQPCSPBTCOM-UHFFFAOYSA-N,c1ccc2c(c1)c1c(cc2)c2cccc3c2c2c1cc(Cl)cc2cc3,C24H13Cl,r2scan,336.821,13,24,1,-1382.423079515066,-1382.1157879527,0.0002036576,-1382.1765084759,7.871368218276,7.6537749139,0.0017853296,7.121478756,0.2893228598,-5.2795,-2.5927,2.6868,2.18532,317.54027,-0.12819 0.82687 -0.19754,0.00872,0.006854,0.00394
3-0302,monoCl,GOTMQPCSPBTCOM-UHFFFAOYSA-N,c1ccc2c(c1)c1c(cc2)c2cccc3c2c2c1cc(Cl)cc2cc3,C24H13Cl,d4tzvp,336.821,13,24,1,-1383.425533802445,-1383.11824224,0.0002036576,-1383.1789627632,7.760381470653,7.542788166,0.0017853296,7.0104920094,0.2893228598,-7.6969,-0.2757,7.4212,2.20102,306.34679,-0.15685 0.82899 -0.19495,0.00872,0.006854,0.00394
3-0303,monoCl,GOYFRGCENBNZKT-UHFFFAOYSA-N,c1ccc2-c3c4c(-c2c1)cccc4c1c(c3)ccc2c1cccc2Cl,C24H13Cl,xtb2,336.821,13,24,1,-62.600178088842,-62.299963879882,0.000211889994,-62.363138881585,9.963264109953,9.752749979433,0.001662021824,9.257218171345,0.281468610564,-10.2336,-7.8526,2.381021347114,1.84,257.129964,-0.563 -0.441 0.109,0.01907068,0.003751986,0.003173954
3-0303,monoCl,GOYFRGCENBNZKT-UHFFFAOYSA-N,c1ccc2-c3c4c(-c2c1)cccc4c1c(c3)ccc2c1cccc2Cl,C24H13Cl,r2scan,336.821,13,24,1,-1382.40259774918,-1382.0956139037,0.0002054935,-1382.1568817949,7.85088645239,7.6336008649,0.0017834937,7.101852075,0.288858826,-5.5208,-2.8193,2.7015,1.68561,329.22623,-0.52409 -0.39888 0.07748,0.018897,0.003707,0.003132
3-0303,monoCl,GOYFRGCENBNZKT-UHFFFAOYSA-N,c1ccc2-c3c4c(-c2c1)cccc4c1c(c3)ccc2c1cccc2Cl,C24H13Cl,d4tzvp,336.821,13,24,1,-1383.406898105819,-1383.0999142603002,0.0002054935,-1383.1611821515005,7.741745774027,7.5244601863,0.0017834937,6.9927113977,0.288858826,-8.0589,-0.4958,7.5631,1.76077,313.54288,-0.55805 -0.40257 0.07990,0.018897,0.003707,0.003132
3-0304,monoCl,GPCZEIOTHPJPNO-UHFFFAOYSA-N,c1ccc2-c3c4c(-c2c1)c1cc2cccc(c2cc1cc4ccc3)Cl,C24H13Cl,xtb2,336.821,13,24,1,-62.590431152922,-62.290989543673,0.000213591852,-62.354671954201,9.953517174033,9.743775643224,0.001660319966,9.248751243961,0.280472298216,-9.7708,-8.3653,1.405566376902,1.433,257.160168,-0.445 0.346 -0.000,0.0135633,0.004300081,0.003264964
3-0304,monoCl,GPCZEIOTHPJPNO-UHFFFAOYSA-N,c1ccc2-c3c4c(-c2c1)c1cc2cccc(c2cc1cc4ccc3)Cl,C24H13Cl,r2scan,336.821,13,24,1,-1382.392222666209,-1382.0864564311,0.000208195,-1382.1485297671,7.840511369419,7.6244433923,0.0017807922,7.0935000472,0.2872747212,-4.9397,-3.3686,1.5711,1.10782,343.39787,-0.34845 0.26179 -0.00002,0.013422,0.004263,0.003236
3-0304,monoCl,GPCZEIOTHPJPNO-UHFFFAOYSA-N,c1ccc2-c3c4c(-c2c1)c1cc2cccc(c2cc1cc4ccc3)Cl,C24H13Cl,d4tzvp,336.821,13,24,1,-1383.390068912733,-1383.0843026776,0.000208195,-1383.1463760135998,7.724916580941,7.5088486036,0.0017807922,6.9779052598,0.2872747212,-7.2504,-1.1748,6.0756,1.18083,330.93723,-0.37464 0.27471 -0.00003,0.013422,0.004263,0.003236
3-0305,monoCl,GPHGRFFFGGKLBD-UHFFFAOYSA-N,Clc1ccc2c(c1)ccc1c2c2c(cc1)cc1c(c2)c2ccccc2cc1,C26H15Cl,xtb2,362.859,15,26,1,-67.905630106856,-67.570352055572,0.00022565653,-67.637631550005,10.895157857365,10.659021998041,0.001837537594,10.111160163093,0.314625921933,-9.9835,-7.6779,2.305517071474,2.31,279.811143,0.386 0.821 -0.055,0.008627097,0.004086086,0.002832841