id,subset,key,smiles,formula,level,mwt,nH,nC,nCl,E,H,S,G,dE,dH,dS,dG,zpe,homo,lumo,gap,Mu,alpha,tMu,rotA,rotB,rotC
3-0324,monoCl,GWZIQMPRPILCJF-UHFFFAOYSA-N,Clc1ccc2c(c1)ccc1c2cc2c(c1)cc1c(c2)cc2c(c1)cccc2,C26H15Cl,r2scan,362.859,15,26,1,-1459.800194025218,-1459.4587878043,0.0002183128,-1459.5238777546,8.589507182522,8.3472411415,0.0019713906,7.7594708655,0.3210972142,-4.659,-3.2275,1.4315,2.3749,426.46832,-0.89593 -0.26513 0.00001,0.023505,0.001984,0.001829
3-0324,monoCl,GWZIQMPRPILCJF-UHFFFAOYSA-N,Clc1ccc2c(c1)ccc1c2cc2c(c1)cc1c(c2)cc2c(c1)cccc2,C26H15Cl,d4tzvp,362.859,15,26,1,-1460.880605228374,-1460.5391990075002,0.0002183128,-1460.6042889578002,8.459771926336,8.2175058851,0.0019713906,7.6297356106,0.3210972142,-6.943,-1.034,5.909,2.38288,396.82365,-0.89573 -0.27663 0.00001,0.023505,0.001984,0.001829
3-0325,monoCl,GXDAQLCXONCXQD-UHFFFAOYSA-N,c1ccc2c(c1)c1c3ccccc3c3c(c1cc2)cccc3Cl,C22H13Cl,xtb2,312.799,13,22,1,-58.303512630224,-58.016064327936,0.000204788112,-58.077121903528,9.253191394065,9.050722113457,0.00156271745,8.584797904658,0.269691336916,-10.0931,-7.458,2.635087723376,1.904,239.861011,0.546 -0.416 -0.299,0.01456978,0.006321099,0.004760958
3-0325,monoCl,GXDAQLCXONCXQD-UHFFFAOYSA-N,c1ccc2c(c1)c1c3ccccc3c3c(c1cc2)cccc3Cl,C22H13Cl,r2scan,312.799,13,22,1,-1306.189513065258,-1305.8953355457,0.0001983308,-1305.9544678664,7.302233943004,7.0930337205,0.001677244,6.5929632799,0.2770607924,-5.3578,-2.3354,3.0224,1.75001,285.96737,0.48002 -0.40329 -0.28453,0.014435,0.006213,0.004679
3-0325,monoCl,GXDAQLCXONCXQD-UHFFFAOYSA-N,c1ccc2c(c1)c1c3ccccc3c3c(c1cc2)cccc3Cl,C22H13Cl,d4tzvp,312.799,13,22,1,-1307.122124064047,-1306.8279465444,0.0001983308,-1306.8870788651,7.202593647821,6.993393425,0.001677244,6.4933229857,0.2770607924,-7.8918,0.0826,7.9744,1.76348,276.59734,0.46084 -0.43175 -0.28734,0.014435,0.006213,0.004679
3-0326,monoCl,GXDIBNNAXCZJBG-UHFFFAOYSA-N,c1ccc2c(c1Cl)cc1c3c2c2ccccc2c2c3c(cc1)ccc2,C24H13Cl,xtb2,336.821,13,24,1,-62.615176911402,-62.314693039152,0.000210072668,-62.37732620508,9.978262932513,9.767479138703,0.00166383915,9.27140549484,0.281915630977,-9.8993,-7.8214,2.077901404802,2.174,257.220293,0.611 0.575 -0.167,0.01125216,0.005871857,0.003954758
3-0326,monoCl,GXDIBNNAXCZJBG-UHFFFAOYSA-N,c1ccc2c(c1Cl)cc1c3c2c2ccccc2c2c3c(cc1)ccc2,C24H13Cl,r2scan,336.821,13,24,1,-1382.419013613777,-1382.1116441013,0.0002032926,-1382.1722557802,7.867302316987,7.6496310625,0.0017856946,7.1172260603,0.2894515736,-5.1108,-2.7073,2.4035,2.04822,322.48241,0.57245 0.54724 -0.14889,0.01116,0.005793,0.003901
3-0326,monoCl,GXDIBNNAXCZJBG-UHFFFAOYSA-N,c1ccc2c(c1Cl)cc1c3c2c2ccccc2c2c3c(cc1)ccc2,C24H13Cl,d4tzvp,336.821,13,24,1,-1383.421308162969,-1383.1139386505,0.0002032926,-1383.1745503294,7.756155831177,7.5384845765,0.0017856946,7.0060795756,0.2894515736,-7.5053,-0.4232,7.0821,2.01178,311.0148,0.54987 0.54837 -0.15287,0.01116,0.005793,0.003901
3-0327,monoCl,GXOHJMNNWMMMLI-UHFFFAOYSA-N,c1ccc2c(c1)c(Cl)cc1c2ccc2-c3c4c(-c12)cccc4ccc3,C24H13Cl,xtb2,336.821,13,24,1,-62.601458958957,-62.301341693555,0.000214263751,-62.365224431043,9.964544980068,9.754127793106,0.001659648067,9.259303720803,0.281116895919,-10.1466,-7.9536,2.193074896962,2.138,257.132718,-0.470 -0.698 -0.001,0.01543505,0.004272839,0.003346451
3-0327,monoCl,GXOHJMNNWMMMLI-UHFFFAOYSA-N,c1ccc2c(c1)c(Cl)cc1c2ccc2-c3c4c(-c12)cccc4ccc3,C24H13Cl,r2scan,336.821,13,24,1,-1382.404887943461,-1382.0986942079,0.0002092686,-1382.1610876399,7.853176646671,7.6366811691,0.0017797186,7.10605792,0.2875970786,-5.4341,-2.8939,2.5402,1.96702,329.6621,-0.40258 -0.66091 -0.00039,0.01525,0.004242,0.003319
3-0327,monoCl,GXOHJMNNWMMMLI-UHFFFAOYSA-N,c1ccc2c(c1)c(Cl)cc1c2ccc2-c3c4c(-c12)cccc4ccc3,C24H13Cl,d4tzvp,336.821,13,24,1,-1383.40948078411,-1383.1032870485,0.0002092686,-1383.1656804805,7.744328452318,7.5278329745,0.0017797186,6.9972097267,0.2875970786,-8.0273,-0.558,7.4693,1.95247,313.7618,-0.37041 -0.67293 -0.00041,0.01525,0.004242,0.003319
3-0328,monoCl,GXOOQZWIYCXGPE-UHFFFAOYSA-N,c1c(Cl)cc2-c3c4c(-c2c1)cc1c(c4c2c(c3)cccc2)cccc1,C24H13Cl,xtb2,336.821,13,24,1,-62.602869843335,-62.30272928334,0.000213227673,-62.366303114058,9.965955864446,9.755515382891,0.001660684145,9.260382403818,0.281318871244,-10.2064,-7.7854,2.42102762614,2.729,257.140197,1.021 0.330 0.043,0.01095804,0.004761291,0.00334154
3-0328,monoCl,GXOOQZWIYCXGPE-UHFFFAOYSA-N,c1c(Cl)cc2-c3c4c(-c2c1)cc1c(c4c2c(c3)cccc2)cccc1,C24H13Cl,r2scan,336.821,13,24,1,-1382.406206070025,-1382.0996103116,0.0002067795,-1382.1612616261,7.854494773235,7.6375972728,0.0017822077,7.1062319062,0.288303538,-5.4618,-2.6653,2.7965,2.39613,333.15348,0.88843 0.31289 0.03830,0.010821,0.00472,0.003305
3-0328,monoCl,GXOOQZWIYCXGPE-UHFFFAOYSA-N,c1c(Cl)cc2-c3c4c(-c2c1)cc1c(c4c2c(c3)cccc2)cccc1,C24H13Cl,d4tzvp,336.821,13,24,1,-1383.409894588209,-1383.1032988297998,0.0002067795,-1383.1649501442998,7.744742256417,7.5278447558,0.0017822077,6.9964793905,0.288303538,-8.0066,-0.3365,7.6701,2.26935,316.99079,0.83035 0.32574 0.03902,0.010821,0.00472,0.003305
3-0329,monoCl,GXXLWKXIAVLVTG-UHFFFAOYSA-N,c1ccc2c(c1)cc(c1c2c2ccccc2c2c1c1ccccc1cc2)Cl,C26H15Cl,xtb2,362.859,15,26,1,-67.893958558067,-67.558644083344,0.000224199067,-67.625489035283,10.883486308576,10.647314025813,0.001838995057,10.099017648371,0.314721228588,-10.0225,-7.5747,2.447862097789,1.734,279.901227,0.369 0.350 0.455,0.008823744,0.005709436,0.003847924
3-0329,monoCl,GXXLWKXIAVLVTG-UHFFFAOYSA-N,c1ccc2c(c1)cc(c1c2c2ccccc2c2c1c1ccccc1cc2)Cl,C26H15Cl,r2scan,362.859,15,26,1,-1459.791712008783,-1459.4485349293,0.0002156761,-1459.5128387679,8.581025166087,8.3369882665,0.0019740273,7.7484318788,0.3233751913,-5.2672,-2.4888,2.7784,1.59575,346.89444,0.38892 0.26484 0.41562,0.008622,0.005636,0.00382
3-0329,monoCl,GXXLWKXIAVLVTG-UHFFFAOYSA-N,c1ccc2c(c1)cc(c1c2c2ccccc2c2c1c1ccccc1cc2)Cl,C26H15Cl,d4tzvp,362.859,15,26,1,-1460.882364896393,-1460.5391878169,0.0002156761,-1460.6034916555,8.461531594355,8.2174946945,0.0019740273,7.6289383083,0.3233751913,-7.7608,-0.076,7.6848,1.6711,332.66045,0.43760 0.25790 0.41741,0.008622,0.005636,0.00382
3-0330,monoCl,HAOZSGVYNPHXME-UHFFFAOYSA-N,c1ccc2c(c1)c1c(cc2)cc2c3c1ccc1c3c(cc2Cl)ccc1,C24H13Cl,xtb2,336.821,13,24,1,-62.616261971339,-62.315957198294,0.000209826068,-62.378516840396,9.97934799245,9.768743297845,0.00166408575,9.272596130156,0.281766685549,-9.9426,-7.8445,2.098129418555,2.086,257.237911,0.259 0.773 0.095,0.01199232,0.005300211,0.003744213
3-0330,monoCl,HAOZSGVYNPHXME-UHFFFAOYSA-N,c1ccc2c(c1)c1c(cc2)cc2c3c1ccc1c3c(cc2Cl)ccc1,C24H13Cl,r2scan,336.821,13,24,1,-1382.42184105129,-1382.114658367,0.0002032331,-1382.1752523157,7.8701297545,7.6526453282,0.0017857541,7.1202225958,0.2892832223,-5.1635,-2.7127,2.4508,1.86491,333.74276,0.21667 0.69733 0.07139,0.011908,0.00522,0.003689
3-0330,monoCl,HAOZSGVYNPHXME-UHFFFAOYSA-N,c1ccc2c(c1)c1c(cc2)cc2c3c1ccc1c3c(cc2Cl)ccc1,C24H13Cl,d4tzvp,336.821,13,24,1,-1383.422143012671,-1383.1149603284,0.0002032331,-1383.1755542771,7.756990680879,7.5395062544,0.0017857541,7.0070835233,0.2892832223,-7.5299,-0.465,7.0649,1.8341,319.76164,0.18220 0.69423 0.07429,0.011908,0.00522,0.003689
3-0331,monoCl,HAQAFSRNIXCJOC-UHFFFAOYSA-N,c1c2ccc(cc2c2-c3c4c(-c2c1)cc1c(c4ccc3)cccc1)Cl,C24H13Cl,xtb2,336.821,13,24,1,-62.605342639329,-62.305345078033,0.000214017441,-62.369154377966,9.96842866044,9.758131177584,0.001659894377,9.263233667726,0.281036994137,-10.1456,-7.9914,2.154222354237,2.769,257.138186,0.894 -0.623 -0.001,0.01816805,0.003687947,0.003065649
3-0331,monoCl,HAQAFSRNIXCJOC-UHFFFAOYSA-N,c1c2ccc(cc2c2-c3c4c(-c2c1)cc1c(c4ccc3)cccc1)Cl,C24H13Cl,r2scan,336.821,13,24,1,-1382.409995758037,-1382.1039842749,0.0002086434,-1382.1661913013,7.858284461247,7.6419712361,0.0017803438,7.1111615814,0.2874506272,-5.4078,-2.8977,2.5101,2.57967,334.99182,0.79492 -0.63097 -0.00020,0.017973,0.00366,0.003041
3-0331,monoCl,HAQAFSRNIXCJOC-UHFFFAOYSA-N,c1c2ccc(cc2c2-c3c4c(-c2c1)cc1c(c4ccc3)cccc1)Cl,C24H13Cl,d4tzvp,336.821,13,24,1,-1383.413476666376,-1383.1074651833,0.0002086434,-1383.1696722097,7.748324334584,7.5320111093,0.0017803438,7.0012014559,0.2874506272,-8.029,-0.5942,7.4348,2.49275,318.21746,0.72415 -0.66134 -0.00021,0.017973,0.00366,0.003041
3-0332,monoCl,HATDIDRMFHDRII-UHFFFAOYSA-N,c1ccc2c(c1)cc1c(c2)cc2c(c1)c1ccccc1c1c2cc(Cl)cc1,C26H15Cl,xtb2,362.859,15,26,1,-67.90342236734,-67.568268217705,0.000237222924,-67.638996232445,10.892950117849,10.656938160174,0.0018259712,10.112524845533,0.313990419762,-9.8197,-7.9184,1.901350605478,2.266,279.841431,0.237 0.859 -0.001,0.008972414,0.003477073,0.002506094
3-0332,monoCl,HATDIDRMFHDRII-UHFFFAOYSA-N,c1ccc2c(c1)cc1c(c2)cc2c(c1)c1ccccc1c1c2cc(Cl)cc1,C26H15Cl,r2scan,362.859,15,26,1,-1459.809226581886,-1459.4679490793,0.0002276307,-1459.5358171856,8.59853973919,8.3564024165,0.0019620727,7.7714102965,0.3203279362,-4.9787,-2.9168,2.0619,2.09462,380.19437,0.19681 0.80022 -0.00031,0.008879,0.003453,0.002486
3-0332,monoCl,HATDIDRMFHDRII-UHFFFAOYSA-N,c1ccc2c(c1)cc1c(c2)cc2c(c1)c1ccccc1c1c2cc(Cl)cc1,C26H15Cl,d4tzvp,362.859,15,26,1,-1460.89785290956,-1460.556575407,0.0002276307,-1460.6244435133,8.477019607522,8.2348822846,0.0019620727,7.6498901661,0.3203279362,-7.4004,-0.5927,6.8077,2.10168,359.40645,0.18076 0.80685 -0.00048,0.008879,0.003453,0.002486
3-0333,monoCl,HBGYCTBGTQIVDG-UHFFFAOYSA-N,c1ccc2c(c1)ccc1-c3c4c(-c21)cccc4c(cc3)Cl,C20H11Cl,xtb2,286.761,11,20,1,-53.004838059811,-52.752947387835,0.000193461331,-52.810627883704,8.328075094254,8.151721330438,0.001384761925,7.738854561506,0.235815720916,-10.1058,-8.0744,2.031451900694,1.515,217.211458,0.595 0.032 -0.000,0.0260232,0.005745623,0.004706485
3-0333,monoCl,HBGYCTBGTQIVDG-UHFFFAOYSA-N,c1ccc2c(c1)ccc1-c3c4c(-c21)cccc4c(cc3)Cl,C20H11Cl,r2scan,286.761,11,20,1,-1228.793982231352,-1228.536849488,0.0001890506,-1228.5932149342,6.565678655004,6.3840812868,0.001485808,5.9410875169,0.2414297591,-5.347,-2.9931,2.3539,1.41067,267.23012,0.55202 0.05734 -0.00001,0.025822,0.005686,0.00466
3-0333,monoCl,HBGYCTBGTQIVDG-UHFFFAOYSA-N,c1ccc2c(c1)ccc1-c3c4c(-c21)cccc4c(cc3)Cl,C20H11Cl,d4tzvp,286.761,11,20,1,-1229.638083387234,-1229.3809506438,0.0001890506,-1229.43731609,6.474233941254,6.2926365728,0.001485808,5.849642804,0.2414297591,-7.9913,-0.6715,7.3198,1.60766,256.97176,0.62764 0.07817 -0.00001,0.025822,0.005686,0.00466
3-0334,monoCl,HCVQQDATSNXPFN-UHFFFAOYSA-N,c1ccc2c(c1)ccc1c2cc2c(c1Cl)c1ccccc1c1c2cccc1,C26H15Cl,xtb2,362.859,15,26,1,-67.903155419543,-67.567537082541,0.000227458604,-67.6353538654,10.892683170052,10.65620702501,0.00183573552,10.108882478488,0.314768805122,-10.0799,-7.5127,2.567263931627,1.75,279.884847,0.100 0.647 -0.213,0.01035612,0.004352705,0.00316192
3-0334,monoCl,HCVQQDATSNXPFN-UHFFFAOYSA-N,c1ccc2c(c1)ccc1c2cc2c(c1Cl)c1ccccc1c1c2cccc1,C26H15Cl,r2scan,362.859,15,26,1,-1459.804449147227,-1459.461297939,0.0002189786,-1459.5265864083,8.593762304531,8.3497512762,0.0019707248,7.7621795192,0.323017251,-5.3589,-2.4695,2.8894,1.62388,355.36871,0.13255 0.57572 -0.24318,0.010186,0.00431,0.003142
3-0334,monoCl,HCVQQDATSNXPFN-UHFFFAOYSA-N,c1ccc2c(c1)ccc1c2cc2c(c1Cl)c1ccccc1c1c2cccc1,C26H15Cl,d4tzvp,362.859,15,26,1,-1460.897966902937,-1460.5548156946998,0.0002189786,-1460.620104164,8.477133600899,8.2331225723,0.0019707248,7.6455508168,0.323017251,-7.9174,-0.0763,7.8411,1.6385,338.86794,0.14131 0.58130 -0.24013,0.010186,0.00431,0.003142
3-0335,monoCl,HDBYNQCGHHLJJQ-UHFFFAOYSA-N,c1ccc2c(c1)c1-c3cc4ccccc4c4c3c(-c1cc2)ccc4Cl,C24H13Cl,xtb2,336.821,13,24,1,-62.600556896688,-62.300420735778,0.000214370327,-62.364335248656,9.963642917799,9.753206835329,0.001659541491,9.258414538416,0.281094556322,-10.0868,-7.9992,2.087611313259,1.53,257.188954,-0.491 0.349 -0.000,0.01316799,0.004799006,0.003517186
3-0335,monoCl,HDBYNQCGHHLJJQ-UHFFFAOYSA-N,c1ccc2c(c1)c1-c3cc4ccccc4c4c3c(-c1cc2)ccc4Cl,C24H13Cl,r2scan,336.821,13,24,1,-1382.401740728335,-1382.0958634704,0.0002118017,-1382.1590121542,7.850029431545,7.6338504316,0.0017771855,7.1039824343,0.2870179116,-5.3411,-2.9086,2.4325,1.41093,328.49736,-0.44755 0.32837 -0.00001,0.012979,0.004758,0.003482
3-0335,monoCl,HDBYNQCGHHLJJQ-UHFFFAOYSA-N,c1ccc2c(c1)c1-c3cc4ccccc4c4c3c(-c1cc2)ccc4Cl,C24H13Cl,d4tzvp,336.821,13,24,1,-1383.406459742481,-1383.1005824846,0.0002118017,-1383.1637311684,7.741307410689,7.5251284106,0.0017771855,6.9952604146,0.2870179116,-7.9342,-0.62,7.3142,1.58898,313.11461,-0.53664 0.32065 -0.00001,0.012979,0.004758,0.003482
3-0336,monoCl,HDIMBYQSWWNWJF-UHFFFAOYSA-N,c1ccc2c(c1)cc(c1-c3c4c(-c21)c1ccccc1cc4ccc3)Cl,C24H13Cl,xtb2,336.821,13,24,1,-62.589306626999,-62.289420966019,0.000212357825,-62.352735451659,9.95239264811,9.74220706557,0.001661553993,9.246814741419,0.281071121858,-9.9354,-8.2881,1.647306761759,2.342,257.111105,-0.474 -0.780 -0.122,0.009108257,0.00707676,0.004072932
3-0336,monoCl,HDIMBYQSWWNWJF-UHFFFAOYSA-N,c1ccc2c(c1)cc(c1-c3c4c(-c21)c1ccccc1cc4ccc3)Cl,C24H13Cl,r2scan,336.821,13,24,1,-1382.390603051663,-1382.0838672714,0.0002052062,-1382.1450495001,7.838891754873,7.6218542326,0.001783781,7.0900197802,0.2885588531,-5.1633,-3.2278,1.9355,2.13664,326.0999,-0.48206 -0.68072 -0.10414,0.009045,0.006967,0.004024
3-0336,monoCl,HDIMBYQSWWNWJF-UHFFFAOYSA-N,c1ccc2c(c1)cc(c1-c3c4c(-c21)c1ccccc1cc4ccc3)Cl,C24H13Cl,d4tzvp,336.821,13,24,1,-1383.389948083732,-1383.0832123034,0.0002052062,-1383.1443945320998,7.72479575194,7.5077582294,0.001783781,6.9759237783,0.2885588531,-7.6165,-0.9945,6.622,2.0204,314.81732,-0.42470 -0.66352 -0.10576,0.009045,0.006967,0.004024
3-0337,monoCl,HDRZBTZVNDETGM-UHFFFAOYSA-N,c1cc2-c3cccc4c3c(-c2c2c1ccc1c2cc(cc1)Cl)ccc4,C24H13Cl,xtb2,336.821,13,24,1,-62.597199231564,-62.297192217994,0.000211508328,-62.360253426022,9.960285252675,9.749978317545,0.00166240349,9.254332715782,0.281312945086,-10.0821,-7.9321,2.150035945145,1.962,257.094377,0.240 0.654 0.333,0.0109988,0.005734591,0.003937205
3-0337,monoCl,HDRZBTZVNDETGM-UHFFFAOYSA-N,c1cc2-c3cccc4c3c(-c2c2c1ccc1c2cc(cc1)Cl)ccc4,C24H13Cl,r2scan,336.821,13,24,1,-1382.399423371704,-1382.0925037359,0.0002044701,-1382.1534665078,7.847712074914,7.6304906971,0.0017845171,7.0984367879,0.2888775388,-5.3146,-2.8828,2.4318,1.88222,317.71142,0.23533 0.60357 0.35871,0.010938,0.005627,0.003866
3-0337,monoCl,HDRZBTZVNDETGM-UHFFFAOYSA-N,c1cc2-c3cccc4c3c(-c2c2c1ccc1c2cc(cc1)Cl)ccc4,C24H13Cl,d4tzvp,336.821,13,24,1,-1383.401989775605,-1383.0950701398,0.0002044701,-1383.1560329117,7.736837443813,7.5196160658,0.0017845171,6.9875621579,0.2888775388,-7.9082,-0.5411,7.3671,1.92543,304.58936,0.16195 0.64514 0.36247,0.010938,0.005627,0.003866
3-0338,monoCl,HDSBRVCEWNIVBN-UHFFFAOYSA-N,c1ccc2c3c1cccc3c1c(c2)c2c(Cl)ccc3c2c(c1)ccc3,C24H13Cl,xtb2,336.821,13,24,1,-62.600197912185,-62.300410203172,0.000210593459,-62.363198642982,9.963283933296,9.753196302723,0.001663318359,9.257277932742,0.281108534835,-9.4837,-8.224,1.259698389077,1.534,257.263567,-0.086 -0.557 -0.215,0.01284454,0.005270686,0.003873371
3-0338,monoCl,HDSBRVCEWNIVBN-UHFFFAOYSA-N,c1ccc2c3c1cccc3c1c(c2)c2c(Cl)ccc3c2c(c1)ccc3,C24H13Cl,r2scan,336.821,13,24,1,-1382.400287865208,-1382.0934971533,0.0002036246,-1382.1542078138,7.848576568418,7.6314841145,0.0017853626,7.0991780939,0.2888082,-4.5864,-3.1317,1.4547,1.31867,364.25086,-0.10239 -0.46520 -0.20555,0.012658,0.005204,0.003824
3-0338,monoCl,HDSBRVCEWNIVBN-UHFFFAOYSA-N,c1ccc2c3c1cccc3c1c(c2)c2c(Cl)ccc3c2c(c1)ccc3,C24H13Cl,d4tzvp,336.821,13,24,1,-1383.396162861261,-1383.0893721494,0.0002036246,-1383.1500828099,7.731010529469,7.5139180754,0.0017853626,6.9816120561,0.2888082,-6.8049,-1.0032,5.8017,1.35072,347.02123,-0.11402 -0.47339 -0.21282,0.012658,0.005204,0.003824
3-0339,monoCl,HECLSFDSRLQFCD-UHFFFAOYSA-N,c1ccc2c(c1)cc1c(c2Cl)c2ccccc2c2c1c1ccccc1cc2,C26H15Cl,xtb2,362.859,15,26,1,-67.892125753016,-67.556684894533,0.000225559536,-67.623935470213,10.881653503525,10.645354837002,0.001837634588,10.097464083301,0.314729574035,-9.8894,-7.7059,2.183473266045,1.684,279.859699,0.378 0.424 -0.341,0.007741848,0.005796411,0.003495921
3-0339,monoCl,HECLSFDSRLQFCD-UHFFFAOYSA-N,c1ccc2c(c1)cc1c(c2Cl)c2ccccc2c2c1c1ccccc1cc2,C26H15Cl,r2scan,362.859,15,26,1,-1459.791644861972,-1459.4482587302,0.0002170666,-1459.5129771279,8.580958019276,8.3367120674,0.0019726368,7.7485702388,0.3234629058,-5.1319,-2.6642,2.4677,1.4821,353.0084,0.31050 0.37853 -0.31670,0.007666,0.005706,0.00345
3-0339,monoCl,HECLSFDSRLQFCD-UHFFFAOYSA-N,c1ccc2c(c1)cc1c(c2Cl)c2ccccc2c2c1c1ccccc1cc2,C26H15Cl,d4tzvp,362.859,15,26,1,-1460.882262268802,-1460.538876137,0.0002170666,-1460.6035945347,8.461428966764,8.2171830146,0.0019726368,7.6290411875,0.3234629058,-7.6346,-0.3142,7.3204,1.52492,337.73662,0.31585 0.39208 -0.32626,0.007666,0.005706,0.00345
3-0340,monoCl,HETAGJTWQYAJDG-UHFFFAOYSA-N,c1ccc2c(c1)c1ccc3c4c1c(c2)c(Cl)cc4ccc3,C20H11Cl,xtb2,286.761,11,20,1,-53.0253158546,-52.773166568732,0.00019168875,-52.830318569447,8.348552889043,8.171940511335,0.001386534506,7.758545247249,0.236286371112,-9.9371,-7.9069,2.030190519006,2.003,217.287682,0.024 0.788 -0.000,0.01477964,0.008627967,0.005447727
3-0340,monoCl,HETAGJTWQYAJDG-UHFFFAOYSA-N,c1ccc2c(c1)c1ccc3c4c1c(c2)c(Cl)cc4ccc3,C20H11Cl,r2scan,286.761,11,20,1,-1228.817733860595,-1228.5602810288,0.0001867199,-1228.6159515534,6.589430284247,6.4075128276,0.0014881387,5.9638241361,0.2419886576,-5.1297,-2.7328,2.3969,1.84485,272.15885,0.02690 0.72531 -0.00001,0.014584,0.008567,0.005397
3-0340,monoCl,HETAGJTWQYAJDG-UHFFFAOYSA-N,c1ccc2c(c1)c1ccc3c4c1c(c2)c(Cl)cc4ccc3,C20H11Cl,d4tzvp,286.761,11,20,1,-1229.659318024927,-1229.4018651931,0.0001867199,-1229.4575357177,6.495468578947,6.3135511221,0.0014881387,5.8698624317,0.2419886576,-7.4968,-0.461,7.0358,1.82954,264.48608,0.05007 0.71804 -0.00000,0.014584,0.008567,0.005397
3-0341,monoCl,HFPKAIASNOMOFT-UHFFFAOYSA-N,c1c(Cl)cc2c(c1)c1-c3cc4ccccc4c4c3c(-c1cc2)ccc4,C24H13Cl,xtb2,336.821,13,24,1,-62.605305019753,-62.305284651887,0.000213757369,-62.3690164114,9.968391040864,9.758070751438,0.001660154449,9.26309570116,0.281095170135,-10.1456,-8.0082,2.13732520035,2.898,257.137551,1.069 -0.397 -0.000,0.01374149,0.003970269,0.003080294
3-0341,monoCl,HFPKAIASNOMOFT-UHFFFAOYSA-N,c1c(Cl)cc2c(c1)c1-c3cc4ccccc4c4c3c(-c1cc2)ccc4,C24H13Cl,r2scan,336.821,13,24,1,-1382.409634782302,-1382.1037907259,0.0002090641,-1382.1661231933,7.857923485512,7.6417776871,0.0017799231,7.1110934734,0.2872113409,-5.3948,-2.9245,2.4703,2.60403,332.54499,0.95770 -0.36384 -0.00002,0.013622,0.003934,0.003053
3-0341,monoCl,HFPKAIASNOMOFT-UHFFFAOYSA-N,c1c(Cl)cc2c(c1)c1-c3cc4ccccc4c4c3c(-c1cc2)ccc4,C24H13Cl,d4tzvp,336.821,13,24,1,-1383.413292488254,-1383.1074484319,0.0002090641,-1383.1697808993,7.748140156462,7.5319943579,0.0017799231,7.0013101455,0.2872113409,-7.9835,-0.6208,7.3627,2.46039,315.93098,0.89335 -0.37268 -0.00001,0.013622,0.003934,0.003053
3-0342,monoCl,HGEMQCBSRGBATK-UHFFFAOYSA-N,c1ccc2c(c1)ccc1-c3c4c(-c21)cccc4c1c(c3)cccc1Cl,C24H13Cl,xtb2,336.821,13,24,1,-62.598486647092,-62.29836531411,0.000217699704,-62.363272480777,9.961572668203,9.751151413661,0.001656212114,9.257351770537,0.281084703159,-10.0414,-7.9604,2.080951748302,1.585,257.175438,-0.178 -0.598 0.000,0.01828679,0.003989827,0.003275234
3-0342,monoCl,HGEMQCBSRGBATK-UHFFFAOYSA-N,c1ccc2c(c1)ccc1-c3c4c(-c21)cccc4c1c(c3)cccc1Cl,C24H13Cl,r2scan,336.821,13,24,1,-1382.400093291186,-1382.0940012688,0.0002120596,-1382.157226842,7.848381994396,7.63198823,0.0017769276,7.1021971221,0.2874120432,-5.3189,-2.857,2.4619,1.53236,330.93199,-0.13689 -0.58712 -0.00023,0.018083,0.003946,0.003239
3-0342,monoCl,HGEMQCBSRGBATK-UHFFFAOYSA-N,c1ccc2c(c1)ccc1-c3c4c(-c21)cccc4c1c(c3)cccc1Cl,C24H13Cl,d4tzvp,336.821,13,24,1,-1383.404753800372,-1383.098661778,0.0002120596,-1383.1618873512,7.73960146858,7.523207704,0.0017769276,6.9934165974,0.2874120432,-7.9271,-0.5472,7.3799,1.6391,314.95245,-0.17108 -0.62175 -0.00024,0.018083,0.003946,0.003239