id,subset,key,smiles,formula,level,mwt,nH,nC,nCl,E,H,S,G,dE,dH,dS,dG,zpe,homo,lumo,gap,Mu,alpha,tMu,rotA,rotB,rotC
3-0079,monoCl,BPWXVVVMZHNYFC-UHFFFAOYSA-N,c1cc2c(cc1)c(Cl)c1-c3c4c(-c1c2)cc1ccccc1c4ccc3,C24H13Cl,d4tzvp,336.821,13,24,1,-1383.416431657892,-1383.1102348375,0.0002075542,-1383.172117118,7.7512793261,7.5347807635,0.001781433,7.0036463642,0.2877267259,-7.8074,-0.2884,7.519,1.72663,321.69076,-0.31938 0.59953 -0.00001,0.015192,0.004281,0.00334
3-0080,monoCl,BQJWPIOJJXGVBH-UHFFFAOYSA-N,c1ccc2c(c1)cc1c3c2-c2c4cc(Cl)ccc4ccc2-c3ccc1,C24H13Cl,xtb2,336.821,13,24,1,-62.589733016519,-62.289969592188,0.000212337129,-62.353277907224,9.95281903763,9.742755691739,0.001661574689,9.247357196984,0.280971115664,-9.8892,-8.2568,1.632454207377,2.482,257.078607,-0.597 0.724 0.269,0.010037,0.006061262,0.003900815
3-0080,monoCl,BQJWPIOJJXGVBH-UHFFFAOYSA-N,c1ccc2c(c1)cc1c3c2-c2c4cc(Cl)ccc4ccc2-c3ccc1,C24H13Cl,r2scan,336.821,13,24,1,-1382.391646618103,-1382.0850837493,0.000205318,-1382.1462993026,7.839935321313,7.6230707105,0.0017836692,7.0912695827,0.2883865528,-5.1176,-3.2057,1.9119,2.37657,327.63614,-0.56953 0.69096 0.26912,0.009941,0.005971,0.003842
3-0080,monoCl,BQJWPIOJJXGVBH-UHFFFAOYSA-N,c1ccc2c(c1)cc1c3c2-c2c4cc(Cl)ccc4ccc2-c3ccc1,C24H13Cl,d4tzvp,336.821,13,24,1,-1383.390370661103,-1383.0838077923,0.000205318,-1383.1450233456,7.725218329311,7.5083537183,0.0017836692,6.9765525918,0.2883865528,-7.5708,-0.9703,6.6005,2.37422,315.63839,-0.51997 0.72681 0.27180,0.009941,0.005971,0.003842
3-0081,monoCl,BQNBXBCQXOZDRO-UHFFFAOYSA-N,c1c2c(cc3c(c2)cccc3Cl)cc2c1ccc1c2cc2c(c1)cccc2,C26H15Cl,xtb2,362.859,15,26,1,-67.900452736205,-67.565818727856,0.000227279181,-67.633582015612,10.889980486714,10.654488670325,0.001835914943,10.1071106287,0.313800516278,-9.8239,-7.9887,1.835171839889,1.862,279.872595,0.190 -0.708 0.000,0.01365611,0.002670272,0.002233534
3-0081,monoCl,BQNBXBCQXOZDRO-UHFFFAOYSA-N,c1c2c(cc3c(c2)cccc3Cl)cc2c1ccc1c2cc2c(c1)cccc2,C26H15Cl,r2scan,362.859,15,26,1,-1459.806789604817,-1459.4650394142,0.0002204253,-1459.5307592272,8.596102762121,8.3534927514,0.0019692781,7.7663523381,0.3214864022,-4.9815,-2.9494,2.0321,1.65801,407.59433,0.17064 -0.62958 0.00008,0.013503,0.002647,0.002213
3-0081,monoCl,BQNBXBCQXOZDRO-UHFFFAOYSA-N,c1c2c(cc3c(c2)cccc3Cl)cc2c1ccc1c2cc2c(c1)cccc2,C26H15Cl,d4tzvp,362.859,15,26,1,-1460.890209503554,-1460.548459313,0.0002204253,-1460.614179126,8.469376201516,8.2267661906,0.0019692781,7.6396257788,0.3214864022,-7.3868,-0.6516,6.7352,1.65311,378.06389,0.10402 -0.64200 0.00009,0.013503,0.002647,0.002213
3-0082,monoCl,BQSWCZAGFHWCQO-UHFFFAOYSA-N,c1c(Cl)cc2c(c1)c1c(cc2)cc2c(c1)ccc1c2cccc1,C22H13Cl,xtb2,312.799,13,22,1,-58.316386714505,-58.029238727713,0.00020723474,-58.091025765585,9.266065478346,9.063896513234,0.001560270822,8.598701766715,0.269173144736,-10.138,-7.6164,2.521606016191,2.532,239.877542,-0.992 0.086 -0.000,0.03045518,0.003326608,0.002999026
3-0082,monoCl,BQSWCZAGFHWCQO-UHFFFAOYSA-N,c1c(Cl)cc2c(c1)c1c(cc2)cc2c(c1)ccc1c2cccc1,C22H13Cl,r2scan,312.799,13,22,1,-1306.209473951964,-1305.916324609,0.00020158,-1305.9764256735,7.32219482971,7.1140227838,0.0016739948,6.614921087,0.275655562,-5.3628,-2.4889,2.8739,2.32092,315.65533,-0.90992 0.07618 0.00002,0.030174,0.003297,0.002973
3-0082,monoCl,BQSWCZAGFHWCQO-UHFFFAOYSA-N,c1c(Cl)cc2c(c1)c1c(cc2)cc2c(c1)ccc1c2cccc1,C22H13Cl,d4tzvp,312.799,13,22,1,-1307.139563630298,-1306.8464142873,0.00020158,-1306.9065153518,7.220033214072,7.0118611679,0.0016739948,6.5127594724,0.275655562,-7.8879,-0.0756,7.8123,2.31549,299.54581,-0.90763 0.07790 0.00002,0.030174,0.003297,0.002973
3-0083,monoCl,BQWAFTHDXIMSHH-UHFFFAOYSA-N,Clc1ccc2c(c1)cc1c3c2c2ccccc2c2c3c(cc1)ccc2,C24H13Cl,xtb2,336.821,13,24,1,-62.615808657805,-62.315406909333,0.00021047435,-62.378159836769,9.978894678916,9.768193008884,0.001663437468,9.272239126529,0.281818796851,-9.9605,-7.8459,2.114668320139,2.561,257.20672,1.004 0.081 0.026,0.01222657,0.005014681,0.003635505
3-0083,monoCl,BQWAFTHDXIMSHH-UHFFFAOYSA-N,Clc1ccc2c(c1)cc1c3c2c2ccccc2c2c3c(cc1)ccc2,C24H13Cl,r2scan,336.821,13,24,1,-1382.420247005066,-1382.1130177677,0.0002037339,-1382.1737610368,7.868535708276,7.6510047289,0.0017852533,7.1187313169,0.2892792791,-5.162,-2.7144,2.4476,2.40413,327.18098,0.93968 0.10359 0.02956,0.012111,0.004955,0.003586
3-0083,monoCl,BQWAFTHDXIMSHH-UHFFFAOYSA-N,Clc1ccc2c(c1)cc1c3c2c2ccccc2c2c3c(cc1)ccc2,C24H13Cl,d4tzvp,336.821,13,24,1,-1383.422046445629,-1383.1148172082,0.0002037339,-1383.1755604773,7.756894113837,7.5393631342,0.0017852533,7.0070897235,0.2892792791,-7.5588,-0.4203,7.1385,2.40324,314.41075,0.94081 0.08753 0.03404,0.012111,0.004955,0.003586
3-0084,monoCl,BRFPLPLEWMZSKM-UHFFFAOYSA-N,c1ccc2-c3c4c(-c2c1)cc1c2c4c(cc3)ccc2ccc1Cl,C22H11Cl,xtb2,310.783,11,22,1,-57.315430364933,-57.050453167454,0.000197894991,-57.109455558876,9.052074656646,8.867355424087,0.001486734521,8.424085525308,0.248227473295,-10.0612,-8.0849,1.976268231721,1.728,234.569549,0.156 0.662 -0.000,0.01290429,0.007042477,0.004556035
3-0084,monoCl,BRFPLPLEWMZSKM-UHFFFAOYSA-N,c1ccc2-c3c4c(-c2c1)cc1c2c4c(cc3)ccc2ccc1Cl,C22H11Cl,r2scan,310.783,11,22,1,-1305.019568835455,-1304.7495483081,0.0001940977,-1304.8074185268,7.126833084571,6.9370688933,0.0015941733,6.4617659761,0.2534687061,-5.2813,-2.9716,2.3097,1.59789,299.35103,0.17744 0.60308 -0.00003,0.012772,0.006978,0.004512
3-0084,monoCl,BRFPLPLEWMZSKM-UHFFFAOYSA-N,c1ccc2-c3c4c(-c2c1)cc1c2c4c(cc3)ccc2ccc1Cl,C22H11Cl,d4tzvp,310.783,11,22,1,-1305.935289280751,-1305.6652687534,0.0001940977,-1305.7231389720998,7.025817919205,6.8360537278,0.0015941733,6.3607508117,0.2534687061,-7.6943,-0.7436,6.9507,1.64562,287.94017,0.16114 0.62705 -0.00003,0.012772,0.006978,0.004512
3-0085,monoCl,BRTNITRQOZNBQF-UHFFFAOYSA-N,c1ccc2-c3c(-c2c1)cc(c1c3ccc2c1cccc2)Cl,C20H11Cl,xtb2,286.761,11,20,1,-52.92793460005,-52.676787171867,0.000196784312,-52.735458414412,8.251171634493,8.07556111447,0.001381438944,7.663685092214,0.234728131776,-9.8929,-7.7381,2.154750714841,1.796,214.258895,-0.308 -0.627 0.104,0.02136064,0.006107871,0.004790565
3-0085,monoCl,BRTNITRQOZNBQF-UHFFFAOYSA-N,c1ccc2-c3c(-c2c1)cc(c1c3ccc2c1cccc2)Cl,C20H11Cl,r2scan,286.761,11,20,1,-1228.705271288722,-1228.4488929822,0.0001913981,-1228.5059583345,6.476967712374,6.296124781,0.0014834605,5.8538309172,0.240382393,-5.0444,-2.6295,2.4149,1.57141,277.58541,-0.24200 -0.55848 0.10838,0.020876,0.006043,0.004723
3-0085,monoCl,BRTNITRQOZNBQF-UHFFFAOYSA-N,c1ccc2-c3c(-c2c1)cc(c1c3ccc2c1cccc2)Cl,C20H11Cl,d4tzvp,286.761,11,20,1,-1229.550132521441,-1229.2937542149,0.0001913981,-1229.3508195672,6.386283075461,6.2054401439,0.0014834605,5.7631462812,0.240382393,-7.6099,-0.1393,7.4706,1.60503,264.28653,-0.26234 -0.56444 0.10638,0.020876,0.006043,0.004723
3-0086,monoCl,BSCSJVXMEINSTO-UHFFFAOYSA-N,c1ccc2c(c1)cc1c3c2ccc2c3c(cc1)c1c(c2)c(Cl)ccc1,C24H13Cl,xtb2,336.821,13,24,1,-62.616924957872,-62.316741393585,0.000211889143,-62.379916141699,9.980010978983,9.769527493136,0.001662022675,9.273995431459,0.281378733602,-9.7256,-8.0543,1.671314912519,2.15,257.249896,-0.552 0.641 0.000,0.01955285,0.003786178,0.003171965
3-0086,monoCl,BSCSJVXMEINSTO-UHFFFAOYSA-N,c1ccc2c(c1)cc1c3c2ccc2c3c(cc1)c1c(c2)c(Cl)ccc1,C24H13Cl,r2scan,336.821,13,24,1,-1382.423750859657,-1382.1172052949,0.0002061626,-1382.1786726788,7.872039562867,7.6551922561,0.0017828246,7.1236429589,0.2882393868,-4.8988,-2.9328,1.966,1.99341,351.32422,-0.51063 0.59524 0.00001,0.019357,0.003753,0.003143
3-0086,monoCl,BSCSJVXMEINSTO-UHFFFAOYSA-N,c1ccc2c(c1)cc1c3c2ccc2c3c(cc1)c1c(c2)c(Cl)ccc1,C24H13Cl,d4tzvp,336.821,13,24,1,-1383.422517567129,-1383.1159720023,0.0002061626,-1383.1774393862,7.757365235337,7.5405179283,0.0017828246,7.0089686324,0.2882393868,-7.1538,-0.7444,6.4094,1.96476,337.22317,-0.47422 0.61042 0.00000,0.019357,0.003753,0.003143
3-0087,monoCl,BSEHMULSQDDPJZ-UHFFFAOYSA-N,c1ccc2c(c1)c1ccc3c(c1cc2)ccc1c3c2cccc(c2cc1)Cl,C26H15Cl,xtb2,362.859,15,26,1,-67.905042016945,-67.569473042012,0.000225488718,-67.636702503356,10.894569767454,10.658142984481,0.001837705406,10.110231116444,0.314892330275,-10.0848,-7.5028,2.582066389926,2.237,279.817168,0.867 0.014 -0.149,0.01735808,0.002803758,0.002446577
3-0087,monoCl,BSEHMULSQDDPJZ-UHFFFAOYSA-N,c1ccc2c(c1)c1ccc3c(c1cc2)ccc1c3c2cccc(c2cc1)Cl,C26H15Cl,r2scan,362.859,15,26,1,-1459.810929427868,-1459.4676023396,0.0002176922,-1459.5325072642,8.600242585172,8.3560556768,0.0019720112,7.7681003751,0.3233927263,-5.3733,-2.4005,2.9728,2.08161,363.51954,0.80570 -0.00600 -0.14659,0.017359,0.002756,0.002409
3-0087,monoCl,BSEHMULSQDDPJZ-UHFFFAOYSA-N,c1ccc2c(c1)c1ccc3c(c1cc2)ccc1c3c2cccc(c2cc1)Cl,C26H15Cl,d4tzvp,362.859,15,26,1,-1460.900885569051,-1460.5575584808,0.0002176922,-1460.6224634054,8.480052267013,8.2358653584,0.0019720112,7.6479100582,0.3233927263,-7.8947,-0.0161,7.8786,2.0434,345.85818,0.78984 -0.00994 -0.14950,0.017359,0.002756,0.002409
3-0088,monoCl,BSWWKWLOQZUOLG-UHFFFAOYSA-N,c1ccc2c(c1)cc1c(c2)cc2c(c1Cl)ccc1c2ccc2c1cccc2,C26H15Cl,xtb2,362.859,15,26,1,-67.899820497777,-67.564879791129,0.00022829225,-67.632945125582,10.889348248286,10.653549733598,0.001834901874,10.10647373867,0.313971484341,-9.6982,-8.0853,1.61290227882,1.804,279.892995,0.134 -0.697 -0.000,0.01667017,0.002790264,0.002390192
3-0088,monoCl,BSWWKWLOQZUOLG-UHFFFAOYSA-N,c1ccc2c(c1)cc1c(c2)cc2c(c1Cl)ccc1c2ccc2c1cccc2,C26H15Cl,r2scan,362.859,15,26,1,-1459.805521723815,-1459.463331729,0.0002209607,-1459.5292111685,8.594834881119,8.3517850662,0.0019687427,7.7648042794,0.3218151523,-4.8599,-3.0564,1.8035,1.7114,395.16202,0.14289 -0.65797 0.00004,0.01634,0.002775,0.002372
3-0088,monoCl,BSWWKWLOQZUOLG-UHFFFAOYSA-N,c1ccc2c(c1)cc1c(c2)cc2c(c1Cl)ccc1c2ccc2c1cccc2,C26H15Cl,d4tzvp,362.859,15,26,1,-1460.89076690633,-1460.5485769115,0.0002209607,-1460.6144563510002,8.469933604292,8.2268837891,0.0019687427,7.6399030038,0.3218151523,-7.2218,-0.8147,6.4071,1.74819,373.51902,0.13415 -0.67457 0.00004,0.01634,0.002775,0.002372
3-0089,monoCl,BUKMVQAWKHQXPN-UHFFFAOYSA-N,c1ccc2c(c1)cc1c(c2)ccc2c1c1c(Cl)cccc1c1c2cccc1,C26H15Cl,xtb2,362.859,15,26,1,-67.896182712927,-67.561187160858,0.000225390763,-67.628387416954,10.885710463436,10.649857103327,0.001837803361,10.101916030042,0.314271867313,-9.7808,-7.7155,2.065316564078,1.64,279.910125,0.473 0.183 0.399,0.01151204,0.004440473,0.003517033
3-0089,monoCl,BUKMVQAWKHQXPN-UHFFFAOYSA-N,c1ccc2c(c1)cc1c(c2)ccc2c1c1c(Cl)cccc1c1c2cccc1,C26H15Cl,r2scan,362.859,15,26,1,-1459.795118705796,-1459.452313315,0.0002171359,-1459.5170523948,8.5844318631,8.3407666522,0.0019725675,7.7526455057,0.322845675,-4.9768,-2.6404,2.3364,1.56087,355.58932,0.47179 0.10123 0.37982,0.011149,0.004397,0.00347
3-0089,monoCl,BUKMVQAWKHQXPN-UHFFFAOYSA-N,c1ccc2c(c1)cc1c(c2)ccc2c1c1c(Cl)cccc1c1c2cccc1,C26H15Cl,d4tzvp,362.859,15,26,1,-1460.884325551535,-1460.5415201607002,0.0002171359,-1460.6062592405,8.463492249497,8.2198270383,0.0019725675,7.6317058933,0.322845675,-7.4164,-0.301,7.1154,1.66171,339.95294,0.52362 0.08026 0.38311,0.011149,0.004397,0.00347
3-0090,monoCl,BUNJOUUUIHCUKM-UHFFFAOYSA-N,c1ccc2c(c1)c1c(c3c2cc(Cl)cc3)ccc2c1c1ccccc1cc2,C26H15Cl,xtb2,362.859,15,26,1,-67.903937650487,-67.568564198287,0.000225276708,-67.635730448912,10.893465400996,10.657234140756,0.001837917416,10.109259062,0.314707568557,-10.1273,-7.4504,2.676942928188,2.406,279.834868,-0.883 -0.174 0.294,0.01195959,0.003903309,0.003234048
3-0090,monoCl,BUNJOUUUIHCUKM-UHFFFAOYSA-N,c1ccc2c(c1)c1c(c3c2cc(Cl)cc3)ccc2c1c1ccccc1cc2,C26H15Cl,r2scan,362.859,15,26,1,-1459.80604757367,-1459.4628132039,0.0002169244,-1459.5274892126,8.595360730974,8.3512665411,0.001972779,7.7630823235,0.3233538835,-5.3881,-2.3572,3.0309,2.22815,344.95774,-0.83240 -0.13747 0.23801,0.01191,0.003831,0.003173
3-0090,monoCl,BUNJOUUUIHCUKM-UHFFFAOYSA-N,c1ccc2c(c1)c1c(c3c2cc(Cl)cc3)ccc2c1c1ccccc1cc2,C26H15Cl,d4tzvp,362.859,15,26,1,-1460.897302562557,-1460.5540681928,0.0002169244,-1460.6187442015,8.476469260519,8.2323750704,0.001972779,7.6441908543,0.3233538835,-7.9118,0.0573,7.9691,2.23275,330.18046,-0.82867 -0.15563 0.24638,0.01191,0.003831,0.003173
3-0091,monoCl,BVEFQVKDDYQPDI-UHFFFAOYSA-N,c1cc(Cl)c2c(c1)c1cc3ccc4c(c3cc1cc2)c1ccccc1cc4,C26H15Cl,xtb2,362.859,15,26,1,-67.904702554611,-67.569376220216,0.000225254232,-67.636535769579,10.89423030512,10.658046162685,0.001837939892,10.110064382667,0.314683785397,-9.9763,-7.6625,2.313762637108,2.279,279.826523,-0.626 0.624 0.150,0.01456512,0.002957779,0.002501205
3-0091,monoCl,BVEFQVKDDYQPDI-UHFFFAOYSA-N,c1cc(Cl)c2c(c1)c1cc3ccc4c(c3cc1cc2)c1ccccc1cc4,C26H15Cl,r2scan,362.859,15,26,1,-1459.810475959143,-1459.4674349296,0.000217799,-1459.5323716921,8.599789116447,8.3558882668,0.0019719044,7.767964803,0.3231202728,-5.2149,-2.6215,2.5934,2.1474,369.09676,-0.59139 0.58489 0.14804,0.014509,0.002909,0.002461
3-0091,monoCl,BVEFQVKDDYQPDI-UHFFFAOYSA-N,c1cc(Cl)c2c(c1)c1cc3ccc4c(c3cc1cc2)c1ccccc1cc4,C26H15Cl,d4tzvp,362.859,15,26,1,-1460.898900118704,-1460.5558590892,0.000217799,-1460.6207958517002,8.478066816666,8.2341659668,0.0019719044,7.6462425045,0.3231202728,-7.6936,-0.2557,7.4379,2.11202,349.46289,-0.55597 0.59964 0.14747,0.014509,0.002909,0.002461
3-0092,monoCl,BVRHGCGVLHMUGS-UHFFFAOYSA-N,c1ccc2c(c1)cc1c(c2)cc2c(c1)ccc1c2cc(Cl)cc1,C22H13Cl,xtb2,312.799,13,22,1,-58.30689351545,-58.020296482761,0.000207380392,-58.082126946614,9.256572279291,9.054954268282,0.00156012517,8.589802947744,0.26862234184,-9.7807,-7.9914,1.789318251502,2.217,239.883041,-0.463 -0.739 0.000,0.01895275,0.003724265,0.003112626
3-0092,monoCl,BVRHGCGVLHMUGS-UHFFFAOYSA-N,c1ccc2c(c1)cc1c(c2)cc2c(c1)ccc1c2cc(Cl)cc1,C22H13Cl,r2scan,312.799,13,22,1,-1306.198579838788,-1305.9057900238,0.0002015394,-1305.9658789812,7.311300716534,7.1034881986,0.0016740354,6.6043743947,0.2753366051,-4.9175,-2.9498,1.9677,2.00106,328.28372,-0.39867 -0.67885 0.00002,0.018732,0.003698,0.003088
3-0092,monoCl,BVRHGCGVLHMUGS-UHFFFAOYSA-N,c1ccc2c(c1)cc1c(c2)cc2c(c1)ccc1c2cc(Cl)cc1,C22H13Cl,d4tzvp,312.799,13,22,1,-1307.123995491076,-1306.8312056761,0.0002015394,-1306.8912946335,7.20446507485,6.9966525567,0.0016740354,6.4975387541,0.2753366051,-7.3169,-0.6457,6.6712,2.02933,311.67642,-0.38416 -0.69988 0.00003,0.018732,0.003698,0.003088
3-0093,monoCl,BVTOTTMAKSDWMJ-UHFFFAOYSA-N,c1cc(Cl)c2-c3c4c(-c2c1)cc1c2ccccc2ccc1c4ccc3,C24H13Cl,xtb2,336.821,13,24,1,-62.606962436151,-62.306726142009,0.000213798389,-62.370470131629,9.970048457262,9.75951224156,0.001660113429,9.264549421389,0.281269716404,-10.1966,-7.9314,2.265218821404,2.432,257.147533,0.918 0.271 0.000,0.01640607,0.004060057,0.003254626
3-0093,monoCl,BVTOTTMAKSDWMJ-UHFFFAOYSA-N,c1cc(Cl)c2-c3c4c(-c2c1)cc1c2ccccc2ccc1c4ccc3,C24H13Cl,r2scan,336.821,13,24,1,-1382.411360572102,-1382.1051089799,0.0002083124,-1382.1672173101,7.859649275312,7.6430959411,0.0017806748,7.1121875902,0.2876996865,-5.465,-2.8163,2.6487,2.21486,328.65805,0.83077 0.26291 0.00001,0.016218,0.004026,0.003225
3-0093,monoCl,BVTOTTMAKSDWMJ-UHFFFAOYSA-N,c1cc(Cl)c2-c3c4c(-c2c1)cc1c2ccccc2ccc1c4ccc3,C24H13Cl,d4tzvp,336.821,13,24,1,-1383.416242754175,-1383.109991162,0.0002083124,-1383.1720994922002,7.751090422383,7.534537088,0.0017806748,7.0036287384,0.2876996865,-7.9555,-0.4877,7.4678,2.07774,314.06642,0.76313 0.29294 -0.00002,0.016218,0.004026,0.003225
3-0094,monoCl,BVZQQFRDTHLEBA-UHFFFAOYSA-N,c1ccc2c(c1)c1-c3c(-c1cc2)c1c(cc3)ccc(c1)Cl,C20H11Cl,xtb2,286.761,11,20,1,-52.92938952755,-52.678600607002,0.000197160104,-52.737383891874,8.252626561993,8.077374549605,0.001381063152,7.665610569676,0.234333212502,-9.6691,-8.029,1.640094459897,2.245,214.159031,0.628 0.621 -0.000,0.02548816,0.004727413,0.00398778
3-0094,monoCl,BVZQQFRDTHLEBA-UHFFFAOYSA-N,c1ccc2c(c1)c1-c3c(-c1cc2)c1c(cc3)ccc(c1)Cl,C20H11Cl,r2scan,286.761,11,20,1,-1228.711002612877,-1228.4552019475,0.0001924296,-1228.512574839,6.482699036529,6.3024337463,0.001482429,5.8604474217,0.2397215289,-4.7618,-2.9128,1.849,2.11116,281.33072,0.56318 0.61048 -0.00006,0.025132,0.004694,0.003955
3-0094,monoCl,BVZQQFRDTHLEBA-UHFFFAOYSA-N,c1ccc2c(c1)c1-c3c(-c1cc2)c1c(cc3)ccc(c1)Cl,C20H11Cl,d4tzvp,286.761,11,20,1,-1229.551533135422,-1229.2957324699998,0.0001924296,-1229.3531053615,6.387683689442,6.207418399,0.001482429,5.7654320755,0.2397215289,-7.22,-0.4119,6.8081,2.11791,267.42823,0.55783 0.61895 -0.00005,0.025132,0.004694,0.003955
3-0095,monoCl,BWACKEAXEARVDH-UHFFFAOYSA-N,c1ccc2c(c1)c(Cl)c1c3c2cccc3c2c3c1cccc3ccc2,C24H13Cl,xtb2,336.821,13,24,1,-62.610064906239,-62.309633998294,0.000210465028,-62.372384146339,9.97315092735,9.762420097845,0.00166344679,9.266463436099,0.281771410155,-9.7617,-7.8957,1.86608458016,1.591,257.278716,0.012 0.594 0.197,0.01262911,0.006037006,0.004200954
3-0095,monoCl,BWACKEAXEARVDH-UHFFFAOYSA-N,c1ccc2c(c1)c(Cl)c1c3c2cccc3c2c3c1cccc3ccc2,C24H13Cl,r2scan,336.821,13,24,1,-1382.409212189061,-1382.1020771853,0.0002038878,-1382.1628663267,7.857500892271,7.6400641465,0.0017850994,7.1078366068,0.2891001591,-4.9574,-2.8142,2.1432,1.33179,325.17331,0.00865 0.47664 0.21742,0.012515,0.005952,0.004153
3-0095,monoCl,BWACKEAXEARVDH-UHFFFAOYSA-N,c1ccc2c(c1)c(Cl)c1c3c2cccc3c2c3c1cccc3ccc2,C24H13Cl,d4tzvp,336.821,13,24,1,-1383.41367836059,-1383.1065433568,0.0002038878,-1383.1673324982,7.748526028798,7.5310892828,0.0017850994,6.9988617444,0.2891001591,-7.3681,-0.5363,6.8318,1.37608,311.20421,0.00184 0.49452 0.22030,0.012515,0.005952,0.004153
3-0096,monoCl,BWCMXODVQARYMU-UHFFFAOYSA-N,c1ccc2c(c1)ccc1c2c2c3ccccc3ccc2c2c1c(Cl)ccc2,C26H15Cl,xtb2,362.859,15,26,1,-67.892030587846,-67.556747574052,0.000225100477,-67.623861281279,10.881558338355,10.645417516521,0.001838093647,10.097389894367,0.314602275936,-9.9483,-7.5672,2.381114136319,1.783,279.857614,-0.288 0.623 -0.144,0.008822431,0.005679374,0.003683259
3-0096,monoCl,BWCMXODVQARYMU-UHFFFAOYSA-N,c1ccc2c(c1)ccc1c2c2c3ccccc3ccc2c2c1c(Cl)ccc2,C26H15Cl,r2scan,362.859,15,26,1,-1459.789198185064,-1459.4459903873,0.0002174569,-1459.510825159,8.578511342368,8.3344437245,0.0019722465,7.7464182699,0.323298323,-5.2119,-2.4328,2.7791,1.6495,341.96618,-0.26666 0.58108 -0.11122,0.008655,0.005604,0.003624
3-0096,monoCl,BWCMXODVQARYMU-UHFFFAOYSA-N,c1ccc2c(c1)ccc1c2c2c3ccccc3ccc2c2c1c(Cl)ccc2,C26H15Cl,d4tzvp,362.859,15,26,1,-1460.880104337828,-1460.53689654,0.0002174569,-1460.6017313117,8.45927103579,8.2152034176,0.0019722465,7.6271779645,0.323298323,-7.703,-0.0451,7.6579,1.66941,329.16016,-0.22306 0.60658 -0.11695,0.008655,0.005604,0.003624
3-0097,monoCl,BWQFBRCEVKQNPX-UHFFFAOYSA-N,c1c2c(cc3c(c2)cccc3Cl)c2c(c1)c1ccc3c(c1cc2)cccc3,C26H15Cl,xtb2,362.859,15,26,1,-67.9076488733,-67.572298022051,0.000228524692,-67.640432658884,10.897176623809,10.66096796452,0.001834669432,10.113961271972,0.314392038147,-9.9747,-7.7736,2.201122773479,1.758,279.846701,0.116 -0.682 -0.000,0.01638569,0.002714444,0.002328677
3-0097,monoCl,BWQFBRCEVKQNPX-UHFFFAOYSA-N,c1c2c(cc3c(c2)cccc3Cl)c2c(c1)c1ccc3c(c1cc2)cccc3,C26H15Cl,r2scan,362.859,15,26,1,-1459.815477208604,-1459.4730139881,0.0002212432,-1459.5389776624,8.604790365908,8.3614673253,0.0019684602,7.7745707733,0.3220995971,-5.2039,-2.6886,2.5153,1.58143,376.87879,0.09800 -0.61440 -0.00006,0.016182,0.002693,0.002309
3-0097,monoCl,BWQFBRCEVKQNPX-UHFFFAOYSA-N,c1c2c(cc3c(c2)cccc3Cl)c2c(c1)c1ccc3c(c1cc2)cccc3,C26H15Cl,d4tzvp,362.859,15,26,1,-1460.90428779268,-1460.5618245722,0.0002212432,-1460.6277882465,8.483454490642,8.2401314498,0.0019684602,7.6532348993,0.3220995971,-7.6797,-0.3251,7.3546,1.59974,357.18764,0.04076 -0.62805 -0.00008,0.016182,0.002693,0.002309
3-0098,monoCl,BWVOPWQTGBEZAU-UHFFFAOYSA-N,c1ccc2-c3c(-c2c1)cc1c(c3Cl)c2c(cc1)ccc1c2cccc1,C24H13Cl,xtb2,336.821,13,24,1,-62.526678023012,-62.227584564441,0.00021492766,-62.291665246301,9.889764044123,9.680370663992,0.001658984158,9.185744536061,0.279976514162,-10.0341,-7.5439,2.490162877148,1.341,254.25579,-0.176 -0.412 0.279,0.01484109,0.004833428,0.003838237