id,subset,key,smiles,formula,level,mwt,nH,nC,nCl,E,H,S,G,dE,dH,dS,dG,zpe,homo,lumo,gap,Mu,alpha,tMu,rotA,rotB,rotC
1-0077,pubchemPAH,QJKAASQRFWOPEJ-UHFFFAOYSA-N,c1ccc2c(c1)c1c2ccc2c1c1c2cccc1,C18H10,d4tzvp,226.278,10,18,0,-692.3755859194,-692.1481109096001,0.0001698808,-692.1987608837001,5.614693405906,5.4533118492,0.0012873498,5.0694884191,0.2142270498,-7.7293,0.1674,7.8967,0.17811,223.06124,0.00000 0.07007 0.00000,0.037611,0.008398,0.006865
1-0078,pubchemPAH,QSQIGGCOCHABAP-UHFFFAOYSA-N,c1c2c(cc3c1cc1c(c3)cccc1)cc1c(c2)cc2c(c1)cccc2,C26H16,xtb2,328.414,16,26,0,-63.828530639419,-63.486815657987,0.000212180213,-63.550077188477,10.907100760953,10.664527971481,0.001834109515,10.117688218251,0.322151920435,-9.2352,-8.2982,0.936976367015,0.0,267.763314,0.000 -0.000 0.000,0.03757323,0.00241094,0.002265567
1-0078,pubchemPAH,QSQIGGCOCHABAP-UHFFFAOYSA-N,c1c2c(cc3c1cc1c(c3)cccc1)cc1c(c2)cc2c(c1)cccc2,C26H16,r2scan,328.414,16,26,0,-1000.201442041071,-999.8521409824,0.0002053136,-999.9133552231,8.607476801143,8.3573159224,0.001967478,7.7707122025,0.3303783441,-4.301,-3.3802,0.9208,0.00029,425.22982,-0.00000 0.00012 0.00000,0.037026,0.002397,0.002251
1-0078,pubchemPAH,QSQIGGCOCHABAP-UHFFFAOYSA-N,c1c2c(cc3c1cc1c(c3)cccc1)cc1c(c2)cc2c(c1)cccc2,C26H16,d4tzvp,328.414,16,26,0,-1001.23947671109,-1000.8901756524,0.0002053136,-1000.9513898931,8.465919371292,8.2157584922,0.001967478,7.6291547739,0.3303783441,-6.4656,-1.294,5.1716,0.0001,403.37207,-0.00001 -0.00004 -0.00001,0.037026,0.002397,0.002251
1-0079,pubchemPAH,QTOPJEQPIXGHRY-UHFFFAOYSA-N,c1ccc2c(c1)cc1-c3c4c(-c1c2)cccc4cc1c3cccc1,C24H14,xtb2,302.376,14,24,0,-58.545412753084,-58.237628537298,0.000203566152,-58.298321785554,9.99754114522,9.779457007874,0.00165344127,9.286483492,0.290154759396,-9.746,-7.9473,1.798716246738,0.356,245.043217,0.136 0.034 0.000,0.01401882,0.005991776,0.004197658
1-0079,pubchemPAH,QTOPJEQPIXGHRY-UHFFFAOYSA-N,c1ccc2c(c1)cc1-c3c4c(-c1c2)cccc4cc1c3cccc1,C24H14,r2scan,302.376,14,24,0,-922.819366612819,-922.5051978941,0.0001981865,-922.5642872124,7.884376918797,7.6599064581,0.0017738889,7.131021361,0.2969550138,-4.9678,-2.9366,2.0312,0.52769,326.40417,0.20392 0.03895 -0.00000,0.013919,0.005938,0.004162
1-0079,pubchemPAH,QTOPJEQPIXGHRY-UHFFFAOYSA-N,c1ccc2c(c1)cc1-c3c4c(-c1c2)cccc4cc1c3cccc1,C24H14,d4tzvp,302.376,14,24,0,-923.784027714208,-923.4698589955,0.0001981865,-923.5289483138,7.766151344656,7.5416808837,0.0017738889,7.012795788,0.2969550138,-7.3517,-0.6758,6.6759,0.54088,312.13556,0.20451 0.05880 0.00000,0.013919,0.005938,0.004162
1-0080,pubchemPAH,RAASUWZPTOJQAY-UHFFFAOYSA-N,c1cc2c(cc1)cc1c(c2)c2ccccc2c2c1cccc2,C22H14,xtb2,278.354,14,22,0,-54.260117122158,-53.964494529058,0.00020023713,-54.024195229291,9.298838257024,9.088194685604,0.001550364036,8.625953647107,0.278697320961,-9.9805,-7.3889,2.591594104479,0.003,227.748568,-0.001 -0.000 -0.000,0.01612033,0.007390259,0.005067224
1-0080,pubchemPAH,RAASUWZPTOJQAY-UHFFFAOYSA-N,c1cc2c(cc1)cc1c(c2)c2ccccc2c2c1cccc2,C22H14,r2scan,278.354,14,22,0,-846.622557560601,-846.3214082543,0.0001957708,-846.3797773269,7.352000041115,7.1358280319,0.0016628922,6.6400366089,0.284490829,-5.2434,-2.3709,2.8725,0.02876,280.01758,-0.01132 -0.00000 -0.00002,0.015967,0.007333,0.005025
1-0080,pubchemPAH,RAASUWZPTOJQAY-UHFFFAOYSA-N,c1cc2c(cc1)cc1c(c2)c2ccccc2c2c1cccc2,C22H14,d4tzvp,278.354,14,22,0,-847.520367197962,-847.2192178917,0.0001957708,-847.2775869643001,7.248112743976,7.0319407345,0.0016628922,6.5361493129,0.284490829,-7.8035,0.07,7.8735,0.00922,270.45602,-0.00363 0.00001 -0.00003,0.015967,0.007333,0.005025
1-0081,pubchemPAH,RJXPMUHZQGSTIM-UHFFFAOYSA-N,c1ccc2c(c1)ccc1c2c2ccccc2c2c1c1ccccc1cc2,C26H16,xtb2,328.414,16,26,0,-63.844840574241,-63.501070818493,0.000214229632,-63.564943383359,10.923410695775,10.678783131987,0.001832060096,10.132554413133,0.324527731191,-9.8715,-7.3853,2.486196540974,0.047,267.683636,-0.014 -0.006 0.010,0.01072508,0.006040687,0.004006212
1-0081,pubchemPAH,RJXPMUHZQGSTIM-UHFFFAOYSA-N,c1ccc2c(c1)ccc1c2c2ccccc2c2c1c1ccccc1cc2,C26H16,r2scan,328.414,16,26,0,-1000.21845442287,-999.8665423033,0.0002066838,-999.9281650901,8.624489182942,8.3717172433,0.0019661078,7.7855220695,0.3333999854,-5.1802,-2.3205,2.8597,0.1029,334.46335,-0.02145 -0.01897 0.02861,0.010651,0.005938,0.003941
1-0081,pubchemPAH,RJXPMUHZQGSTIM-UHFFFAOYSA-N,c1ccc2c(c1)ccc1c2c2ccccc2c2c1c1ccccc1cc2,C26H16,d4tzvp,328.414,16,26,0,-1001.273550339035,-1000.9216382194,0.0002066838,-1000.9832610062,8.499992999237,8.2472210592,0.0019661078,7.661025887,0.3333999854,-7.6645,0.068,7.7325,0.09296,321.23587,-0.02195 -0.01874 0.02247,0.010651,0.005938,0.003941
1-0082,pubchemPAH,RXUSYFJGDZFVND-UHFFFAOYSA-N,c1c2c3c(ccc4c3c(c1)c1ccccc1c4)c1c(c2)cccc1,C24H14,xtb2,302.376,14,24,0,-58.564223272199,-58.255923161424,0.000199370822,-58.315365572123,10.016351664335,9.797751632,0.0016576366,9.303527278569,0.290825485124,-9.5762,-7.8833,1.692921666202,0.0,245.127982,0.000 -0.000 -0.000,0.0254961,0.004777611,0.004023637
1-0082,pubchemPAH,RXUSYFJGDZFVND-UHFFFAOYSA-N,c1c2c3c(ccc4c3c(c1)c1ccccc1c4)c1c(c2)cccc1,C24H14,r2scan,302.376,14,24,0,-922.841935660039,-922.5270203243,0.0001937366,-922.5847828921,7.906945966017,7.6817288883,0.0017783388,7.1515170407,0.2979443894,-4.7749,-2.7829,1.992,8E-05,334.00218,-0.00002 0.00003 -0.00000,0.025221,0.004746,0.003994
1-0082,pubchemPAH,RXUSYFJGDZFVND-UHFFFAOYSA-N,c1c2c3c(ccc4c3c(c1)c1ccccc1c4)c1c(c2)cccc1,C24H14,d4tzvp,302.376,14,24,0,-923.805423141276,-923.4905078056,0.0001937366,-923.5482703734,7.787546771724,7.5623296938,0.0017783388,7.0321178476,0.2979443894,-7.0325,-0.5888,6.4437,5E-05,321.72564,-0.00000 0.00002 0.00001,0.025221,0.004746,0.003994
1-0083,pubchemPAH,SCQIPRLBRNOUOX-UHFFFAOYSA-N,c1ccc2-c3c4c(-c2c1)cc1c(c4ccc3)cc2c(c1)cccc2,C24H14,xtb2,302.376,14,24,0,-58.551902247528,-58.243868957828,0.000202819377,-58.304339555145,10.004030639664,9.785697428404,0.001654188045,9.292501261591,0.290473577286,-9.9605,-7.7415,2.219015750965,0.546,245.044284,-0.214 -0.017 0.000,0.02149124,0.004579376,0.003774996
1-0083,pubchemPAH,SCQIPRLBRNOUOX-UHFFFAOYSA-N,c1ccc2-c3c4c(-c2c1)cc1c(c4ccc3)cc2c(c1)cccc2,C24H14,r2scan,302.376,14,24,0,-922.826237124317,-922.5119855617,0.0001979569,-922.5710064105,7.891247430295,7.6666941257,0.0017741185,7.1377405591,0.2970908638,-5.2016,-2.6732,2.5284,0.53597,328.25715,-0.20905 -0.02757 -0.00001,0.021274,0.004544,0.003744
1-0083,pubchemPAH,SCQIPRLBRNOUOX-UHFFFAOYSA-N,c1ccc2-c3c4c(-c2c1)cc1c(c4ccc3)cc2c(c1)cccc2,C24H14,d4tzvp,302.376,14,24,0,-923.794002565308,-923.4797510027,0.0001979569,-923.5387718515,7.776126195756,7.5515728909,0.0017741185,7.0226193257,0.2970908638,-7.677,-0.3219,7.3551,0.40316,311.56396,-0.15374 -0.03900 -0.00003,0.021274,0.004544,0.003744
1-0084,pubchemPAH,SDWITIWFFMGFHS-UHFFFAOYSA-N,c1cc2cc3c(cc2cc1)cc1c(c3)c2ccccc2c2c1cccc2,C26H16,xtb2,328.414,16,26,0,-63.850057656123,-63.506665284073,0.000223792875,-63.573389129734,10.928627777657,10.684377597567,0.001822496853,10.141000159508,0.323592338186,-9.6835,-7.7733,1.91017968124,0.016,267.728987,-0.006 0.000 0.000,0.01507697,0.003829947,0.003055466
1-0084,pubchemPAH,SDWITIWFFMGFHS-UHFFFAOYSA-N,c1cc2cc3c(cc2cc1)cc1c(c3)c2ccccc2c2c1cccc2,C26H16,r2scan,328.414,16,26,0,-1000.226268916531,-999.8762721035,0.0002156645,-999.9405724706,8.632303676603,8.3814470435,0.0019571271,7.79792945,0.3305412443,-4.8666,-2.7948,2.0718,0.05636,361.45466,-0.02217 0.00034 -0.00041,0.014927,0.003803,0.003031
1-0084,pubchemPAH,SDWITIWFFMGFHS-UHFFFAOYSA-N,c1cc2cc3c(cc2cc1)cc1c(c3)c2ccccc2c2c1cccc2,C26H16,d4tzvp,328.414,16,26,0,-1001.28008102486,-1000.9300842119,0.0002156645,-1000.994384579,8.506523685062,8.2556670517,0.0019571271,7.6721494598,0.3305412443,-7.294,-0.4742,6.8198,0.02371,343.13229,-0.00932 0.00035 -0.00026,0.014927,0.003803,0.003031
1-0085,pubchemPAH,SFARGAWTDBDZAO-UHFFFAOYSA-N,c1ccc2-c3c(-c2c1)ccc1c3c2ccccc2c2c1cccc2,C24H14,xtb2,302.376,14,24,0,-58.480996380962,-58.173054476157,0.000208031577,-58.235079090741,9.933124773098,9.714882946733,0.001648975845,9.223240797187,0.289838298321,-9.7882,-7.4702,2.318015284388,0.037,242.183089,0.009 -0.009 0.007,0.01569565,0.006004903,0.004366588
1-0085,pubchemPAH,SFARGAWTDBDZAO-UHFFFAOYSA-N,c1ccc2-c3c(-c2c1)ccc1c3c2ccccc2c2c1cccc2,C24H14,r2scan,302.376,14,24,0,-922.74684716472,-922.4332612858,0.0002035387,-922.493946335,7.811857470698,7.5879698498,0.0017685367,7.0606804836,0.2957455849,-4.9888,-2.4837,2.5051,0.12748,305.05942,0.02132 -0.03611 0.02751,0.015606,0.005939,0.004316
1-0085,pubchemPAH,SFARGAWTDBDZAO-UHFFFAOYSA-N,c1ccc2-c3c(-c2c1)ccc1c3c2ccccc2c2c1cccc2,C24H14,d4tzvp,302.376,14,24,0,-923.719338113761,-923.4057522349,0.0002035387,-923.4664372841,7.701461744209,7.4775741231,0.0017685367,6.9502847583,0.2957455849,-7.5561,0.0644,7.6205,0.14865,292.10296,0.02774 -0.04407 0.02662,0.015606,0.005939,0.004316
1-0086,pubchemPAH,SKGCHQOKVMMIST-UHFFFAOYSA-N,c1cc2ccc3c(c2c2c1cc1c(c2)cccc1)cc1c(c3)cccc1,C26H16,xtb2,328.414,16,26,0,-63.844901159734,-63.501924779804,0.000213062033,-63.565449224997,10.923471281268,10.679637093298,0.001833227695,10.133060254771,0.323654590154,-9.638,-7.7368,1.901170895564,0.059,267.719363,0.000 0.023 0.000,0.01085109,0.004991237,0.003505347
1-0086,pubchemPAH,SKGCHQOKVMMIST-UHFFFAOYSA-N,c1cc2ccc3c(c2c2c1cc1c(c2)cccc1)cc1c(c3)cccc1,C26H16,r2scan,328.414,16,26,0,-1000.220664875945,-999.869671291,0.0002053451,-999.9308949463,8.626699636017,8.374846231,0.0019674465,7.7882519257,0.3323916121,-4.8401,-2.7522,2.0879,0.02875,352.32497,-0.00000 0.01131 0.00000,0.010873,0.00487,0.003441
1-0086,pubchemPAH,SKGCHQOKVMMIST-UHFFFAOYSA-N,c1cc2ccc3c(c2c2c1cc1c(c2)cccc1)cc1c(c3)cccc1,C26H16,d4tzvp,328.414,16,26,0,-1001.269920612826,-1000.9189270279,0.0002053451,-1000.9801506832,8.496363273028,8.2445098677,0.0019674465,7.657915564,0.3323916121,-7.2515,-0.4453,6.8062,0.04473,336.52381,0.00000 0.01760 0.00001,0.010873,0.00487,0.003441
1-0087,pubchemPAH,SLGBZMMZGDRARJ-UHFFFAOYSA-N,c1cccc2c1c1ccccc1c1c2cccc1,C18H12,xtb2,228.294,12,18,0,-44.666585873599,-44.418851882732,0.000172882295,-44.470396739053,7.665458021797,7.48853988233,0.001282030309,7.106302544911,0.233716219828,-10.3075,-6.9292,3.378307900367,0.0,187.769852,0.000 -0.000 -0.000,0.01732566,0.01732566,0.00866283
1-0087,pubchemPAH,SLGBZMMZGDRARJ-UHFFFAOYSA-N,c1cccc2c1c1ccccc1c1c2cccc1,C18H12,r2scan,228.294,12,18,0,-693.014679693126,-692.7620888274,0.0001745848,-692.8141412745,6.067529894082,5.8857534426,0.0013699496,5.4773028591,0.238863402,-5.6671,-1.8053,3.8618,0.00043,212.63107,-0.00008 -0.00015 0.00000,0.017175,0.017171,0.008586
1-0087,pubchemPAH,SLGBZMMZGDRARJ-UHFFFAOYSA-N,c1cccc2c1c1ccccc1c1c2cccc1,C18H12,d4tzvp,228.294,12,18,0,-693.754763977282,-693.5021731116,0.0001745848,-693.5542255587,5.983812409108,5.8020359574,0.0013699496,5.3935853751,0.238863402,-8.3168,0.6958,9.0126,0.00098,208.74497,-0.00007 -0.00038 0.00000,0.017175,0.017171,0.008586
1-0088,pubchemPAH,SLIUAWYAILUBJU-UHFFFAOYSA-N,c1c2c(cc3c1cc1c(c3)cccc1)cc1c(c2)cccc1,C22H14,xtb2,278.354,14,22,0,-54.240981820699,-53.946880212786,0.000191757025,-54.004052569646,9.279702955565,9.070580369332,0.001558844141,8.605810987462,0.27743714136,-9.3705,-8.1409,1.229572948533,0.001,227.782956,0.000 0.000 0.000,0.04478242,0.003967363,0.003644491
1-0088,pubchemPAH,SLIUAWYAILUBJU-UHFFFAOYSA-N,c1c2c(cc3c1cc1c(c3)cccc1)cc1c(c2)cccc1,C22H14,r2scan,278.354,14,22,0,-846.60079305107,-846.3001319703,0.0001884573,-846.3563205127,7.330235531584,7.1145517479,0.0016702057,6.6165797947,0.2845506939,-4.4714,-3.1767,1.2947,4E-05,330.30613,0.00000 -0.00001 0.00000,0.04415,0.003943,0.00362
1-0088,pubchemPAH,SLIUAWYAILUBJU-UHFFFAOYSA-N,c1c2c(cc3c1cc1c(c3)cccc1)cc1c(c2)cccc1,C22H14,d4tzvp,278.354,14,22,0,-847.484666495237,-847.1840054144,0.0001884573,-847.2401939568,7.212412041251,6.9967282572,0.0016702057,6.4987563054,0.2845506939,-6.7346,-0.9983,5.7363,3E-05,317.41738,-0.00001 0.00000 0.00000,0.04415,0.003943,0.00362
1-0089,pubchemPAH,SOIXGBGHVSXNKH-UHFFFAOYSA-N,c1ccc2c(c1)ccc1c2c2ccc3c(c2cc1)c1ccccc1cc3,C26H16,xtb2,328.414,16,26,0,-63.847864379204,-63.504233754769,0.000211102654,-63.567174011079,10.926434500738,10.681946068263,0.001835187074,10.134785040853,0.32448630888,-9.92,-7.2917,2.628349138049,0.014,267.687787,-0.000 -0.000 -0.005,0.01764346,0.004072257,0.003509841
1-0089,pubchemPAH,SOIXGBGHVSXNKH-UHFFFAOYSA-N,c1ccc2c(c1)ccc1c2c2ccc3c(c2cc1)c1ccccc1cc3,C26H16,r2scan,328.414,16,26,0,-1000.223070325016,-999.8712294714,0.0002037447,-999.9319759509,8.629105085088,8.3764044114,0.0019690469,7.7893329303,0.3334529323,-5.2306,-2.2743,2.9563,0.07388,341.5858,0.00000 -0.00000 -0.02907,0.017621,0.004002,0.003443
1-0089,pubchemPAH,SOIXGBGHVSXNKH-UHFFFAOYSA-N,c1ccc2c(c1)ccc1c2c2ccc3c(c2cc1)c1ccccc1cc3,C26H16,d4tzvp,328.414,16,26,0,-1001.276732052108,-1000.9248911985,0.0002037447,-1000.985637678,8.50317471231,8.2504740383,0.0019690469,7.6634025588,0.3334529323,-7.7463,0.1163,7.8626,0.05882,326.12633,0.00001 -0.00001 -0.02314,0.017621,0.004002,0.003443
1-0090,pubchemPAH,SRCZXQXKBVWAFC-UHFFFAOYSA-N,c1cccc2c1cc1c(c2)c2cccc3c2c2c1cccc2cc3,C24H14,xtb2,302.376,14,24,0,-58.569718095921,-58.261164026608,0.000199409685,-58.32061802433,10.021846488057,9.802992497184,0.001657597737,9.308779730776,0.291076321951,-10.0027,-7.3835,2.61919356702,0.04,245.120688,0.016 -0.000 0.000,0.01613578,0.006013551,0.00438087
1-0090,pubchemPAH,SRCZXQXKBVWAFC-UHFFFAOYSA-N,c1cccc2c1cc1c(c2)c2cccc3c2c2c1cccc2cc3,C24H14,r2scan,302.376,14,24,0,-922.846687042987,-922.5319737379,0.0001972685,-922.5907893533,7.911697348965,7.6866823019,0.0017748069,7.1575235019,0.297615979,-5.2671,-2.3854,2.8817,0.06989,308.87634,0.02750 -0.00000 -0.00001,0.015996,0.005967,0.004346
1-0090,pubchemPAH,SRCZXQXKBVWAFC-UHFFFAOYSA-N,c1cccc2c1cc1c(c2)c2cccc3c2c2c1cccc2cc3,C24H14,d4tzvp,302.376,14,24,0,-923.814769949965,-923.5000566449,0.0001972685,-923.5588722603,7.796893580413,7.5718785331,0.0017748069,7.0427197345,0.297615979,-7.7851,0.0649,7.85,0.06633,297.58146,0.02610 0.00001 -0.00000,0.015996,0.005967,0.004346
1-0091,pubchemPAH,SVORCTYYZHCQQO-UHFFFAOYSA-N,c1ccc2c(c1)cc1c(c2)ccc2c1ccc1c2c2ccccc2cc1,C26H16,xtb2,328.414,16,26,0,-63.848988676266,-63.505656832619,0.000214900959,-63.569729553404,10.9275587978,10.683369146113,0.001831388769,10.137340583178,0.324014821989,-9.7986,-7.5731,2.225512523147,0.127,267.714176,0.044 0.022 -0.009,0.02105941,0.003450149,0.003019688
1-0091,pubchemPAH,SVORCTYYZHCQQO-UHFFFAOYSA-N,c1ccc2c(c1)cc1c(c2)ccc2c1ccc1c2c2ccccc2cc1,C26H16,r2scan,328.414,16,26,0,-1000.225120222557,-999.8738725846,0.000207831,-999.9358374005,8.631154982629,8.3790475246,0.0019649606,7.7931943799,0.3326258616,-5.0456,-2.5259,2.5197,0.14339,359.2594,0.04441 0.02690 -0.02206,0.021013,0.003403,0.002977
1-0091,pubchemPAH,SVORCTYYZHCQQO-UHFFFAOYSA-N,c1ccc2c(c1)cc1c(c2)ccc2c1ccc1c2c2ccccc2cc1,C26H16,d4tzvp,328.414,16,26,0,-1001.277320682827,-1000.9260730448,0.000207831,-1000.9880378607,8.503763343029,8.2516558846,0.0019649606,7.6658027415,0.3326258616,-7.5156,-0.165,7.3506,0.12536,340.70932,0.03498 0.03019 -0.01724,0.021013,0.003403,0.002977
1-0092,pubchemPAH,SXQBHARYMNFBPS-UHFFFAOYSA-N,c1ccc2-c3c4c(-c2c1)cc1c2c4c(cc3)ccc2ccc1,C22H12,xtb2,276.338,12,22,0,-53.262519559233,-52.989420400947,0.000186720045,-53.045090982264,9.088206221971,8.895365028605,0.001481005071,8.453803365382,0.257706467452,-9.9369,-7.8905,2.04634059862,0.607,222.403206,0.230 -0.065 -0.000,0.02094346,0.007711849,0.0056364
1-0092,pubchemPAH,SXQBHARYMNFBPS-UHFFFAOYSA-N,c1ccc2-c3c4c(-c2c1)cc1c2c4c(cc3)ccc2ccc1,C22H12,r2scan,276.338,12,22,0,-845.437361845215,-845.1588387264,0.0001832495,-845.2134745661,7.161347697099,6.9630809144,0.0015881097,6.4895858839,0.2634077358,-5.195,-2.8072,2.3878,0.65872,282.19538,0.24635 -0.08044 -0.00000,0.020787,0.007643,0.005588
1-0092,pubchemPAH,SXQBHARYMNFBPS-UHFFFAOYSA-N,c1ccc2-c3c4c(-c2c1)cc1c2c4c(cc3)ccc2ccc1,C22H12,d4tzvp,276.338,12,22,0,-846.317887966021,-846.0393648471999,0.0001832495,-846.0940006868999,7.055692566715,6.8574257838,0.0015881097,6.3839307545,0.2634077358,-7.6039,-0.5598,7.0441,0.57657,272.61467,0.20904 -0.08806 -0.00001,0.020787,0.007643,0.005588
1-0093,pubchemPAH,SYIAGQWIXOKDJJ-UHFFFAOYSA-N,c1ccc2c(c1)cc1c3c2-c2cccc4c2c3c(cc1)cc4,C22H12,xtb2,276.338,12,22,0,-53.235507884924,-52.962681155498,0.000187534808,-53.018594658387,9.061194547662,8.868625783156,0.001480190308,8.427307041505,0.257352549397,-9.9118,-7.9844,1.9274325255,0.059,222.258205,-0.010 0.021 0.000,0.01807218,0.008730462,0.005886677
1-0093,pubchemPAH,SYIAGQWIXOKDJJ-UHFFFAOYSA-N,c1ccc2c(c1)cc1c3c2-c2cccc4c2c3c(cc1)cc4,C22H12,r2scan,276.338,12,22,0,-845.407427703765,-845.1290934262,0.000184221,-845.1840189254,7.131413555649,6.9333356142,0.0015871382,6.4601302432,0.2631145004,-5.1998,-2.9974,2.2024,0.14598,275.57408,-0.05566 0.01413 0.00015,0.017935,0.008648,0.005835
1-0093,pubchemPAH,SYIAGQWIXOKDJJ-UHFFFAOYSA-N,c1ccc2c(c1)cc1c3c2-c2cccc4c2c3c(cc1)cc4,C22H12,d4tzvp,276.338,12,22,0,-846.28836870726,-846.0100344297001,0.000184221,-846.0649599289001,7.026173307954,6.8280953663,0.0015871382,6.3548899965,0.2631145004,-7.7117,-0.7324,6.9793,0.14857,267.90019,-0.05327 0.02405 0.00015,0.017935,0.008648,0.005835
1-0094,pubchemPAH,SYJUTEXHUJBPBZ-UHFFFAOYSA-N,c1ccc2c(c1)c1cccc3-c4c5c(c2ccc5ccc4)c13,C22H12,xtb2,276.338,12,22,0,-53.246267187162,-52.972991873183,0.00018806323,-53.029062925258,9.0719538499,8.878936500841,0.001479661886,8.437775308376,0.257745063193,-10.2042,-7.69,2.514123368157,0.121,222.282924,0.004 0.047 -0.000,0.01779192,0.00909092,0.00601666
1-0094,pubchemPAH,SYJUTEXHUJBPBZ-UHFFFAOYSA-N,c1ccc2c(c1)c1cccc3-c4c5c(c2ccc5ccc4)c13,C22H12,r2scan,276.338,12,22,0,-845.418782379306,-845.1406638091,0.0001856429,-845.1960132367,7.14276823119,6.9449059971,0.0015857163,6.4721245545,0.2626355049,-5.5352,-2.6599,2.8753,0.08364,267.85513,-0.01691 0.02823 -0.00000,0.017634,0.009018,0.005966
1-0094,pubchemPAH,SYJUTEXHUJBPBZ-UHFFFAOYSA-N,c1ccc2c(c1)c1cccc3-c4c5c(c2ccc5ccc4)c13,C22H12,d4tzvp,276.338,12,22,0,-846.303842234757,-846.0257236646,0.0001856429,-846.0810730922,7.041646835451,6.8437846012,0.0015857163,6.3710031598,0.2626355049,-8.0876,-0.2911,7.7965,0.06957,260.39386,-0.02253 0.01554 -0.00000,0.017634,0.009018,0.005966
1-0095,pubchemPAH,SYWOVGJEUTZUIZ-UHFFFAOYSA-N,c1ccc2c(c1)ccc1c2cc2c(c1)cc1c(c2)c2ccccc2cc1,C26H16,xtb2,328.414,16,26,0,-63.853776085865,-63.510609431133,0.000214710762,-63.574625444754,10.932346207399,10.688321744627,0.001831578966,10.142236474528,0.323660502077,-9.7043,-7.7423,1.961926855037,0.026,267.748411,0.000 -0.010 -0.000,0.01958595,0.003158826,0.002720124
1-0095,pubchemPAH,SYWOVGJEUTZUIZ-UHFFFAOYSA-N,c1ccc2c(c1)ccc1c2cc2c(c1)cc1c(c2)c2ccccc2cc1,C26H16,r2scan,328.414,16,26,0,-1000.231313364427,-999.8808809473,0.0002104974,-999.9436407588,8.637348124499,8.3860558873,0.0019622942,7.8009977382,0.3314665896,-4.8978,-2.7447,2.1531,0.14706,374.13762,-0.00000 -0.05786 0.00001,0.019373,0.003136,0.002699
1-0095,pubchemPAH,SYWOVGJEUTZUIZ-UHFFFAOYSA-N,c1ccc2c(c1)ccc1c2cc2c(c1)cc1c(c2)c2ccccc2cc1,C26H16,d4tzvp,328.414,16,26,0,-1001.283113578088,-1000.932681161,0.0002104974,-1000.9954409725,8.50955623829,8.2582640008,0.0019622942,7.6732058533,0.3314665896,-7.3148,-0.4307,6.8841,0.09406,351.72935,-0.00000 -0.03701 0.00002,0.019373,0.003136,0.002699
1-0096,pubchemPAH,TUAHORSUHVUKBD-UHFFFAOYSA-N,c1ccc2c(c1)ccc1c2c2ccccc2cc1,C18H12,xtb2,228.294,12,18,0,-44.660580177417,-44.413270006927,0.000172217656,-44.464616701127,7.659452325615,7.482958006525,0.001282694948,7.100522506985,0.233731826683,-10.033,-7.2095,2.823510276366,0.05,187.761283,0.000 -0.020 -0.000,0.0270712,0.01212121,0.008579467
1-0096,pubchemPAH,TUAHORSUHVUKBD-UHFFFAOYSA-N,c1ccc2c(c1)ccc1c2c2ccccc2cc1,C18H12,r2scan,228.294,12,18,0,-693.007604309095,-692.7544087744,0.0001674158,-692.804323794,6.060454510051,5.8780733896,0.0013771186,5.4674853786,0.2401408075,-5.3453,-2.1608,3.1845,0.06734,218.33305,-0.00000 -0.02649 -0.00000,0.026967,0.011902,0.008433