id,subset,key,smiles,formula,level,mwt,nH,nC,nCl,E,H,S,G,dE,dH,dS,dG,zpe,homo,lumo,gap,Mu,alpha,tMu,rotA,rotB,rotC
3-0154,monoCl,DGOCTCQCBAHVJX-UHFFFAOYSA-N,c1ccc2c(c1)c1-c3cccc4c3c3c1c(c2)ccc3cc4Cl,C22H11Cl,d4tzvp,310.783,11,22,1,-1305.906253259495,-1305.6364477216,0.0001956638,-1305.694784873,6.996781897949,6.807232696,0.0015926072,6.3323967126,0.2531035899,-7.8263,-0.9017,6.9246,2.18682,284.23021,-0.85349 0.10834 0.00008,0.017894,0.005728,0.004339
3-0155,monoCl,DHLMIWXLSXNJQX-UHFFFAOYSA-N,c1ccc2c(c1)ccc1c2cc2c(c1)c1c(cc2)c(Cl)cc2c1cccc2,C26H15Cl,xtb2,362.859,15,26,1,-67.904691783082,-67.569367816321,0.000225658603,-67.636647928711,10.894219533591,10.65803775879,0.001837535521,10.110176541799,0.314652255986,-10.0055,-7.6852,2.320303965093,2.181,279.845762,0.496 -0.687 0.134,0.01270758,0.003269748,0.002651142
3-0155,monoCl,DHLMIWXLSXNJQX-UHFFFAOYSA-N,c1ccc2c(c1)ccc1c2cc2c(c1)c1c(cc2)c(Cl)cc2c1cccc2,C26H15Cl,r2scan,362.859,15,26,1,-1459.809971791226,-1459.4668949372,0.0002178068,-1459.5318340211,8.59928494853,8.3553482744,0.0019718966,7.767427132,0.3231452789,-5.2245,-2.6403,2.5842,2.02214,368.94312,0.48236 -0.61815 0.13461,0.012595,0.003227,0.002616
3-0155,monoCl,DHLMIWXLSXNJQX-UHFFFAOYSA-N,c1ccc2c(c1)ccc1c2cc2c(c1)c1c(cc2)c(Cl)cc2c1cccc2,C26H15Cl,d4tzvp,362.859,15,26,1,-1460.898524817511,-1460.5554479635,0.0002178068,-1460.6203870473998,8.477691515473,8.2337548411,0.0019718966,7.6458337002,0.3231452789,-7.7031,-0.2735,7.4296,1.98665,349.55555,0.43550 -0.63557 0.13142,0.012595,0.003227,0.002616
3-0156,monoCl,DHLOLQNJBQWBIT-UHFFFAOYSA-N,c1cc2ccc3c(c2c2c1cc1c(c2Cl)cccc1)c1ccccc1cc3,C26H15Cl,xtb2,362.859,15,26,1,-67.895224429681,-67.560565145682,0.000223785483,-67.62728678733,10.88475218019,10.649235088151,0.001839408641,10.100815400418,0.314050090663,-9.8693,-7.7457,2.123620202941,1.297,279.973312,-0.171 0.275 0.394,0.009913214,0.005958885,0.004248964
3-0156,monoCl,DHLOLQNJBQWBIT-UHFFFAOYSA-N,c1cc2ccc3c(c2c2c1cc1c(c2Cl)cccc1)c1ccccc1cc3,C26H15Cl,r2scan,362.859,15,26,1,-1459.791629610275,-1459.4490310295,0.0002150703,-1459.5131542467,8.580942767579,8.3374843667,0.0019746331,7.7487473576,0.3228207173,-5.0617,-2.7179,2.3438,1.13903,342.70779,-0.23379 0.18968 0.33192,0.009786,0.005798,0.004176
3-0156,monoCl,DHLOLQNJBQWBIT-UHFFFAOYSA-N,c1cc2ccc3c(c2c2c1cc1c(c2Cl)cccc1)c1ccccc1cc3,C26H15Cl,d4tzvp,362.859,15,26,1,-1460.879384629317,-1460.5367860484998,0.0002150703,-1460.6009092656998,8.458551327279,8.2150929261,0.0019746331,7.6263559185,0.3228207173,-7.5467,-0.3756,7.1711,1.24684,329.47801,-0.27044 0.23082 0.33794,0.009786,0.005798,0.004176
3-0157,monoCl,DIPHADWXEYDOIT-UHFFFAOYSA-N,Clc1ccc2c(c1)ccc1c2c2c(cc1)cc1c(c2)cc2c(c1)cccc2,C26H15Cl,xtb2,362.859,15,26,1,-67.895599092449,-67.560906636654,0.000225642704,-67.6281820089,10.885126842958,10.649576579123,0.00183755142,10.101710621988,0.314031676125,-9.6865,-8.0163,1.670150120841,2.378,279.824517,-0.514 -0.781 0.026,0.01026234,0.003155213,0.002447107
3-0157,monoCl,DIPHADWXEYDOIT-UHFFFAOYSA-N,Clc1ccc2c(c1)ccc1c2c2c(cc1)cc1c(c2)cc2c(c1)cccc2,C26H15Cl,r2scan,362.859,15,26,1,-1459.800470896518,-1459.4580123235,0.0002178419,-1459.5229618788,8.589784053822,8.3464656607,0.0019718615,7.7585549897,0.3225356739,-4.8293,-3.0077,1.8216,2.19525,386.65241,-0.49024 -0.71029 0.03259,0.010263,0.003093,0.002407
3-0157,monoCl,DIPHADWXEYDOIT-UHFFFAOYSA-N,Clc1ccc2c(c1)ccc1c2c2c(cc1)cc1c(c2)cc2c(c1)cccc2,C26H15Cl,d4tzvp,362.859,15,26,1,-1460.883434189056,-1460.5409756161,0.0002178419,-1460.6059251714,8.462600887018,8.2192824937,0.0019718615,7.6313718242,0.3225356739,-7.19,-0.7397,6.4503,2.21768,364.96563,-0.47789 -0.72907 0.03606,0.010263,0.003093,0.002407
3-0158,monoCl,DJFBINPXFOBIFK-UHFFFAOYSA-N,c1ccc2c(c1)ccc1-c3c4c(-c21)c1ccccc1cc4c(cc3)Cl,C24H13Cl,xtb2,336.821,13,24,1,-62.589499229723,-62.28962761776,0.000212608497,-62.353016841088,9.952585250834,9.742413717311,0.001661303321,9.247096130848,0.281064881445,-9.9012,-8.3049,1.596261103951,1.359,257.161457,0.444 -0.275 0.115,0.01118211,0.00557928,0.003791329
3-0158,monoCl,DJFBINPXFOBIFK-UHFFFAOYSA-N,c1ccc2c(c1)ccc1-c3c4c(-c21)c1ccccc1cc4c(cc3)Cl,C24H13Cl,r2scan,336.821,13,24,1,-1382.391244375005,-1382.0845252262,0.0002054699,-1382.1457860789,7.839533078215,7.6225121874,0.0017835173,7.090756359,0.2885441563,-5.1392,-3.2596,1.8796,1.13897,329.49337,0.36599 -0.23352 0.11095,0.011089,0.005501,0.003742
3-0158,monoCl,DJFBINPXFOBIFK-UHFFFAOYSA-N,c1ccc2c(c1)ccc1-c3c4c(-c21)c1ccccc1cc4c(cc3)Cl,C24H13Cl,d4tzvp,336.821,13,24,1,-1383.390416491964,-1383.0836973432,0.0002054699,-1383.1449581959,7.725264160172,7.5082432692,0.0017835173,6.9764874421,0.2885441563,-7.6145,-1.0389,6.5756,1.24483,317.13613,0.42926 -0.20660 0.11360,0.011089,0.005501,0.003742
3-0159,monoCl,DKDCGLORGSFUPR-UHFFFAOYSA-N,c1ccc2-c3c(-c2c1)cc1c(c3)cccc1Cl,C16H9Cl,xtb2,236.701,9,16,1,-43.346506906625,-43.143447998903,0.00017625616,-43.19599877286,6.6298949544,6.488209784558,0.001106278534,6.158372838704,0.18954446222,-10.2567,-7.3789,2.87777117923,2.024,174.509625,-0.384 -0.697 0.000,0.03501676,0.00819548,0.006641155
3-0159,monoCl,DKDCGLORGSFUPR-UHFFFAOYSA-N,c1ccc2-c3c(-c2c1)cc1c(c3)cccc1Cl,C16H9Cl,r2scan,236.701,9,16,1,-1075.113841936037,-1074.9067261944,0.0001720582,-1074.9580253587,5.208946080131,5.0632028308,0.0011886718,4.708800244,0.1939583405,-5.4642,-2.2788,3.1854,2.04367,220.83252,-0.45561 -0.66247 0.00001,0.034643,0.00808,0.006552
3-0159,monoCl,DKDCGLORGSFUPR-UHFFFAOYSA-N,c1ccc2-c3c(-c2c1)cc1c(c3)cccc1Cl,C16H9Cl,d4tzvp,236.701,9,16,1,-1075.798959586747,-1075.5918438451,0.0001720582,-1075.6431430094,5.136413026579,4.9906697771,0.0011886718,4.6362671912,0.1939583405,-8.0961,0.1494,8.2455,2.04449,211.97851,-0.43990 -0.67339 -0.00000,0.034643,0.00808,0.006552
3-0160,monoCl,DKUGUIUZDJUXJO-UHFFFAOYSA-N,c1ccc2c(c1)ccc1c2ccc2c1cc1c(c2)cc2c(c1)cccc2Cl,C26H15Cl,xtb2,362.859,15,26,1,-67.90069659718,-67.565832984447,0.000227830396,-67.633760617014,10.890224347689,10.654502926916,0.001835363728,10.107289230102,0.3139530894,-9.7328,-8.0828,1.650006020106,2.109,279.862653,0.561 -0.611 0.000,0.02183078,0.002307931,0.002087267
3-0160,monoCl,DKUGUIUZDJUXJO-UHFFFAOYSA-N,c1ccc2c(c1)ccc1c2ccc2c1cc1c(c2)cc2c(c1)cccc2Cl,C26H15Cl,r2scan,362.859,15,26,1,-1459.807328587523,-1459.465183446,0.0002205153,-1459.5309300884,8.596641744827,8.3536367832,0.0019691881,7.7665231993,0.321868423,-4.8807,-3.0462,1.8345,1.97967,397.56609,0.51101 -0.58777 0.00006,0.021572,0.00229,0.00207
3-0160,monoCl,DKUGUIUZDJUXJO-UHFFFAOYSA-N,c1ccc2c(c1)ccc1c2ccc2c1cc1c(c2)cc2c(c1)cccc2Cl,C26H15Cl,d4tzvp,362.859,15,26,1,-1460.891832338053,-1460.5496871966,0.0002205153,-1460.615433839,8.470999036015,8.2279940742,0.0019691881,7.6408804918,0.321868423,-7.2392,-0.784,6.4552,1.92397,374.6063,0.45958 -0.60144 0.00007,0.021572,0.00229,0.00207
3-0161,monoCl,DLNISLBJRBEYGP-UHFFFAOYSA-N,c1cccc2c1cc1c(c2)cc2c(c1)cc1c(c2)cc2c(c1Cl)cccc2,C26H15Cl,xtb2,362.859,15,26,1,-67.881043624056,-67.547312162902,0.000227104575,-67.615023391836,10.870571374565,10.635982105371,0.001836089549,10.088552004924,0.312823037856,-9.3669,-8.4497,0.917211225618,1.747,279.912048,-0.250 0.640 0.000,0.02282236,0.002263685,0.002059417
3-0161,monoCl,DLNISLBJRBEYGP-UHFFFAOYSA-N,c1cccc2c1cc1c(c2)cc2c(c1)cc1c(c2)cc2c(c1Cl)cccc2,C26H15Cl,r2scan,362.859,15,26,1,-1459.782602512686,-1459.4414100074,0.0002196748,-1459.5069060576,8.57191566999,8.3298633446,0.0019700286,7.7424991685,0.3209549131,-4.413,-3.512,0.901,1.65925,439.04218,-0.22103 0.61423 0.00002,0.022401,0.00225,0.002044
3-0161,monoCl,DLNISLBJRBEYGP-UHFFFAOYSA-N,c1cccc2c1cc1c(c2)cc2c(c1)cc1c(c2)cc2c(c1Cl)cccc2,C26H15Cl,d4tzvp,362.859,15,26,1,-1460.856473506137,-1460.5152810008,0.0002196748,-1460.580777051,8.435640204099,8.1935878784,0.0019700286,7.6062237038,0.3209549131,-6.58,-1.4387,5.1413,1.70088,416.29923,-0.19745 0.63937 0.00002,0.022401,0.00225,0.002044
3-0162,monoCl,DNPQNLHYTGYYBG-UHFFFAOYSA-N,c1ccc2c(c1)ccc1c2ccc2c1ccc1c2c2ccccc2c(c1)Cl,C26H15Cl,xtb2,362.859,15,26,1,-67.905278424851,-67.569691268093,0.000225686733,-67.636979767676,10.89480617536,10.658361210562,0.001837507391,10.110508380764,0.314883447817,-10.087,-7.5077,2.579321019393,2.217,279.834537,0.810 -0.268 -0.180,0.01666584,0.002912576,0.002520503
3-0162,monoCl,DNPQNLHYTGYYBG-UHFFFAOYSA-N,c1ccc2c(c1)ccc1c2ccc2c1ccc1c2c2ccccc2c(c1)Cl,C26H15Cl,r2scan,362.859,15,26,1,-1459.811120411882,-1459.4677488648,0.0002179172,-1459.5327208866,8.600433569186,8.356202202,0.0019717862,7.7683139975,0.3234125642,-5.3672,-2.4029,2.9643,1.99264,365.47028,0.71485 -0.27615 -0.16525,0.016544,0.002871,0.002484
3-0162,monoCl,DNPQNLHYTGYYBG-UHFFFAOYSA-N,c1ccc2c(c1)ccc1c2ccc2c1ccc1c2c2ccccc2c(c1)Cl,C26H15Cl,d4tzvp,362.859,15,26,1,-1460.901154953925,-1460.5577834068,0.0002179172,-1460.6227554286,8.480321651887,8.2360902844,0.0019717862,7.6482020814,0.3234125642,-7.8833,-0.0296,7.8537,2.00412,347.06767,0.72743 -0.25639 -0.16368,0.016544,0.002871,0.002484
3-0163,monoCl,DNWJPVBYNRZHQC-UHFFFAOYSA-N,c1ccc2-c3c(-c2c1)ccc1c3c2ccc(cc2c2c1cccc2)Cl,C24H13Cl,xtb2,336.821,13,24,1,-62.534440824986,-62.234735343911,0.00021903802,-62.300041529722,9.897526846097,9.687521443462,0.001654873798,9.194120819482,0.280256870508,-9.9432,-7.6384,2.304826589282,2.295,254.300212,-0.348 -0.833 0.009,0.009312503,0.005398418,0.003430129
3-0163,monoCl,DNWJPVBYNRZHQC-UHFFFAOYSA-N,c1ccc2-c3c(-c2c1)ccc1c3c2ccc(cc2c2c1cccc2)Cl,C24H13Cl,r2scan,336.821,13,24,1,-1382.329824454832,-1382.0248270551,0.0002142347,-1382.0887011185,7.778113158042,7.5628140163,0.0017747525,7.0336713986,0.2857788379,-5.1107,-2.6094,2.5013,2.19333,324.38327,-0.30746 -0.80601 0.02072,0.009224,0.00535,0.003394
3-0163,monoCl,DNWJPVBYNRZHQC-UHFFFAOYSA-N,c1ccc2-c3c(-c2c1)ccc1c3c2ccc(cc2c2c1cccc2)Cl,C24H13Cl,d4tzvp,336.821,13,24,1,-1383.337108365199,-1383.0321109655,0.0002142347,-1383.0959850289,7.671956033407,7.4566568915,0.0017747525,6.9275142751,0.2857788379,-7.6826,-0.0696,7.613,2.21951,308.81913,-0.30507 -0.81795 0.01930,0.009224,0.00535,0.003394
3-0164,monoCl,DNWQJNLIYGBONR-UHFFFAOYSA-N,c1ccc2c(c1)c1cccc3-c4c5c(c2ccc5ccc4Cl)c13,C22H11Cl,xtb2,310.783,11,22,1,-57.300530528135,-57.035321724903,0.000198225551,-57.094422672841,9.037174819848,8.852223981536,0.001486403961,8.409052639273,0.248414240636,-10.3607,-7.9115,2.449259936628,1.995,234.450315,0.567 0.543 -0.000,0.01619195,0.006509246,0.004642812
3-0164,monoCl,DNWQJNLIYGBONR-UHFFFAOYSA-N,c1ccc2c(c1)c1cccc3-c4c5c(c2ccc5ccc4Cl)c13,C22H11Cl,r2scan,310.783,11,22,1,-1305.003259862959,-1304.73366962,0.0001976155,-1304.7925886866,7.110524112075,6.9211902052,0.0015906555,6.4469361359,0.2525582812,-5.6511,-2.8205,2.8306,1.77916,284.70608,0.48471 0.50498 -0.00000,0.016025,0.00647,0.004609
3-0164,monoCl,DNWQJNLIYGBONR-UHFFFAOYSA-N,c1ccc2c(c1)c1cccc3-c4c5c(c2ccc5ccc4Cl)c13,C22H11Cl,d4tzvp,310.783,11,22,1,-1305.923113710871,-1305.6535234679,0.0001976155,-1305.7124425345,7.013642349325,6.8243084423,0.0015906555,6.3500543741,0.2525582812,-8.2183,-0.4704,7.7479,1.79286,275.32219,0.48205 0.51493 -0.00003,0.016025,0.00647,0.004609
3-0165,monoCl,DOKXNELZCZHCOR-UHFFFAOYSA-N,c1ccc2c(c1)c1-c3cccc4c3c(-c1c(c2)Cl)cc1c4cccc1,C24H13Cl,xtb2,336.821,13,24,1,-62.604993862604,-62.304856560744,0.000214365558,-62.368769651957,9.968079883715,9.757642660295,0.00165954626,9.262848941717,0.281119432375,-10.1697,-8.0026,2.167097550152,1.797,257.168669,0.082 0.702 0.000,0.01366745,0.004914186,0.003614558
3-0165,monoCl,DOKXNELZCZHCOR-UHFFFAOYSA-N,c1ccc2c(c1)c1-c3cccc4c3c(-c1c(c2)Cl)cc1c4cccc1,C24H13Cl,r2scan,336.821,13,24,1,-1382.408891466214,-1382.102765442,0.000208803,-1382.1650200515,7.857180169424,7.6407524032,0.0017801842,7.1099903316,0.287481056,-5.4184,-2.9077,2.5107,1.53902,330.00717,0.08635 0.59929 0.00005,0.013498,0.004867,0.003577
3-0165,monoCl,DOKXNELZCZHCOR-UHFFFAOYSA-N,c1ccc2c(c1)c1-c3cccc4c3c(-c1c(c2)Cl)cc1c4cccc1,C24H13Cl,d4tzvp,336.821,13,24,1,-1383.41310580085,-1383.1069797766,0.000208803,-1383.1692343861,7.747953469058,7.5315257026,0.0017801842,7.0007636323,0.287481056,-8.0268,-0.6083,7.4185,1.47438,314.76247,-0.00963 0.57998 0.00004,0.013498,0.004867,0.003577
3-0166,monoCl,DORSIPCAZPKULZ-UHFFFAOYSA-N,Clc1ccc2c(c1)cc1c(c2)cc2c(c1)ccc1c2cccc1,C22H13Cl,xtb2,312.799,13,22,1,-58.307010599143,-58.020376521287,0.000207243078,-58.082166045096,9.256689362984,9.055034306808,0.001560262484,8.589842046226,0.268651704534,-9.8302,-8.0484,1.78182717293,2.545,239.883335,0.978 0.214 -0.000,0.03157142,0.003095786,0.002819332
3-0166,monoCl,DORSIPCAZPKULZ-UHFFFAOYSA-N,Clc1ccc2c(c1)cc1c(c2)cc2c(c1)ccc1c2cccc1,C22H13Cl,r2scan,312.799,13,22,1,-1306.198678733474,-1305.9059175102,0.0002014596,-1305.9659826751,7.31139961122,7.103615685,0.0016741152,6.6044780886,0.275287818,-4.9552,-2.9866,1.9686,2.37912,333.70667,0.90082 0.25420 -0.00000,0.031238,0.003072,0.002797
3-0166,monoCl,DORSIPCAZPKULZ-UHFFFAOYSA-N,Clc1ccc2c(c1)cc1c(c2)cc2c(c1)ccc1c2cccc1,C22H13Cl,d4tzvp,312.799,13,22,1,-1307.124116713807,-1306.8313554905,0.0002014596,-1306.8914206554,7.204586297581,6.9968023711,0.0016741152,6.497664776,0.275287818,-7.3656,-0.689,6.6766,2.36927,315.42231,0.90020 0.24186 -0.00001,0.031238,0.003072,0.002797
3-0167,monoCl,DOXSQLRDBUKRMJ-UHFFFAOYSA-N,c1ccc2c(c1)cc1c(c2)c2c(cc1)c1cccc(c1c1c2cccc1)Cl,C26H15Cl,xtb2,362.859,15,26,1,-67.895344070442,-67.560071662099,0.000224850322,-67.627110785601,10.884871820951,10.648741604568,0.001838343802,10.100639398689,0.314627790918,-9.8361,-7.767,2.069079127824,1.933,279.839829,-0.506 0.473 -0.313,0.01254818,0.003676342,0.003066905
3-0167,monoCl,DOXSQLRDBUKRMJ-UHFFFAOYSA-N,c1ccc2c(c1)cc1c(c2)c2c(cc1)c1cccc(c1c1c2cccc1)Cl,C26H15Cl,r2scan,362.859,15,26,1,-1459.795756263871,-1459.4526539578,0.0002171341,-1459.5173924965,8.585069421175,8.341107295,0.0019725693,7.7529856074,0.3232000762,-5.0368,-2.6963,2.3405,1.76324,358.47853,-0.44918 0.44540 -0.28472,0.012423,0.003617,0.00302
3-0167,monoCl,DOXSQLRDBUKRMJ-UHFFFAOYSA-N,c1ccc2c(c1)cc1c(c2)c2c(cc1)c1cccc(c1c1c2cccc1)Cl,C26H15Cl,d4tzvp,362.859,15,26,1,-1460.884925067302,-1460.5418227612,0.0002171341,-1460.6065612998998,8.464091765264,8.2201296388,0.0019725693,7.6320079527,0.3232000762,-7.4655,-0.354,7.1115,1.76684,342.40366,-0.42101 0.47461 -0.28404,0.012423,0.003617,0.00302
3-0168,monoCl,DPHLTUVNNKLWBV-UHFFFAOYSA-N,c1c2c(Cl)c3c(cc2c2c(c1)ccc1c2ccc2c1cccc2)cccc3,C26H15Cl,xtb2,362.859,15,26,1,-67.901237448569,-67.565916040325,0.000225559927,-67.6331667325,10.890765199078,10.654585982794,0.001837634197,10.106695345588,0.314647404421,-9.9235,-7.7567,2.166805177969,1.967,279.853449,0.612 -0.448 -0.156,0.01272323,0.003488063,0.00279511
3-0168,monoCl,DPHLTUVNNKLWBV-UHFFFAOYSA-N,c1c2c(Cl)c3c(cc2c2c(c1)ccc1c2ccc2c1cccc2)cccc3,C26H15Cl,r2scan,362.859,15,26,1,-1459.805781950859,-1459.462594001,0.0002173442,-1459.5273951848,8.595095108163,8.3510473382,0.0019723592,7.7629882957,0.3232698386,-5.1471,-2.7156,2.4315,1.86356,367.26144,0.57848 -0.42570 -0.14724,0.012678,0.003426,0.002752
3-0168,monoCl,DPHLTUVNNKLWBV-UHFFFAOYSA-N,c1c2c(Cl)c3c(cc2c2c(c1)ccc1c2ccc2c1cccc2)cccc3,C26H15Cl,d4tzvp,362.859,15,26,1,-1460.893853014305,-1460.5506650644002,0.0002173442,-1460.6154662482002,8.473019712267,8.228971942,0.0019723592,7.640912901,0.3232698386,-7.6301,-0.3742,7.2559,1.86269,349.18062,0.57237 -0.43283 -0.14857,0.012678,0.003426,0.002752
3-0169,monoCl,DPWOHSYUCALEDP-UHFFFAOYSA-N,c1ccc2c(c1Cl)cc1c3c2-c2cccc4c2c3c(cc1)cc4,C22H11Cl,xtb2,310.783,11,22,1,-57.28801490401,-57.02331950845,0.000198017729,-57.082358494489,9.024659195723,8.840221765083,0.001486611783,8.396988460921,0.247892402038,-10.0833,-8.1783,1.904938639776,2.05,234.384327,0.636 -0.496 -0.000,0.01671503,0.006043666,0.004438746
3-0169,monoCl,DPWOHSYUCALEDP-UHFFFAOYSA-N,c1ccc2c(c1Cl)cc1c3c2-c2cccc4c2c3c(cc1)cc4,C22H11Cl,r2scan,310.783,11,22,1,-1304.988788276623,-1304.7188687473,0.000194503,-1304.7768598147,7.096052525739,6.9063893325,0.001593768,6.431207264,0.2533562384,-5.3409,-3.1612,2.1797,1.80801,291.82144,0.53834 -0.46492 0.00011,0.016603,0.005968,0.00439
3-0169,monoCl,DPWOHSYUCALEDP-UHFFFAOYSA-N,c1ccc2c(c1Cl)cc1c3c2-c2cccc4c2c3c(cc1)cc4,C22H11Cl,d4tzvp,310.783,11,22,1,-1305.905169312027,-1305.6352497827,0.000194503,-1305.6932408501,6.995697950481,6.8060347571,0.001593768,6.3308526897,0.2533562384,-7.8554,-0.9003,6.9551,1.78737,282.3286,0.52115 -0.47210 0.00012,0.016603,0.005968,0.00439
3-0170,monoCl,DPZQZTWECPZWOR-UHFFFAOYSA-N,c1ccc2c(c1)c1cc3c4c(ccc3cc1cc2)ccc1c4cc(cc1)Cl,C26H15Cl,xtb2,362.859,15,26,1,-67.90587801864,-67.570601184201,0.000225573542,-67.63785593575,10.895405769149,10.65927112667,0.001837620582,10.111384548838,0.314609370745,-9.9631,-7.6579,2.305171058609,1.898,279.811237,-0.218 0.637 -0.323,0.008450511,0.004757688,0.003181398
3-0170,monoCl,DPZQZTWECPZWOR-UHFFFAOYSA-N,c1ccc2c(c1)c1cc3c4c(ccc3cc1cc2)ccc1c4cc(cc1)Cl,C26H15Cl,r2scan,362.859,15,26,1,-1459.812211400028,-1459.4692335495,0.0002175486,-1459.5340956568,8.601524557332,8.3576868867,0.0019721548,7.7696887677,0.3230371069,-5.194,-2.6158,2.5782,1.74008,355.36899,-0.23778 0.55865 -0.31628,0.008366,0.004686,0.003123
3-0170,monoCl,DPZQZTWECPZWOR-UHFFFAOYSA-N,c1ccc2c(c1)c1cc3c4c(ccc3cc1cc2)ccc1c4cc(cc1)Cl,C26H15Cl,d4tzvp,362.859,15,26,1,-1460.900246015954,-1460.5572681655,0.0002175486,-1460.6221302728,8.479412713916,8.2355750431,0.0019721548,7.6475769256,0.3230371069,-7.6748,-0.2548,7.42,1.8219,338.86693,-0.27028 0.58255 -0.31836,0.008366,0.004686,0.003123
3-0171,monoCl,DQIHAMZIWOAQBS-UHFFFAOYSA-N,Clc1cc2ccc3c4c2c(-c2cccc(c42)cc3)c1,C18H9Cl,xtb2,260.723,9,18,1,-47.695524878061,-47.478859063595,0.000177453581,-47.531766848891,7.392320183106,7.24174916328,0.001211487369,6.880544203365,0.202778798118,-10.4626,-7.9709,2.491688445521,2.37,194.41324,-0.747 0.558 -0.000,0.02201556,0.009267378,0.006521974
3-0171,monoCl,DQIHAMZIWOAQBS-UHFFFAOYSA-N,Clc1cc2ccc3c4c2c(-c2cccc(c42)cc3)c1,C18H9Cl,r2scan,260.723,9,18,1,-1151.382265738126,-1151.1613943538,0.0001752816,-1151.213654568,5.812937707684,5.6581597766,0.0012988608,5.2709043199,0.2071629048,-5.7355,-2.9048,2.8307,2.12933,229.45961,-0.69364 0.46973 -0.00003,0.021865,0.009158,0.006454
3-0171,monoCl,DQIHAMZIWOAQBS-UHFFFAOYSA-N,Clc1cc2ccc3c4c2c(-c2cccc(c42)cc3)c1,C18H9Cl,d4tzvp,260.723,9,18,1,-1152.141636577888,-1151.9207651936,0.0001752816,-1151.9730254078002,5.733468102154,5.578690171,0.0012988608,5.1914347152,0.2071629048,-8.4529,-0.5132,7.9397,2.14512,223.42853,-0.69181 0.48335 -0.00003,0.021865,0.009158,0.006454
3-0172,monoCl,DQJIKJVSBIQVAP-UHFFFAOYSA-N,c1ccc2c(c1)c1c3c(ccc4c3cc(cc4)Cl)ccc1cc2,C22H13Cl,xtb2,312.799,13,22,1,-58.307367996408,-58.020401331651,0.000204899292,-58.081492055528,9.257046760249,9.055059117172,0.00156260627,8.589168056658,0.26923040232,-10.152,-7.4382,2.713792766273,2.086,239.863439,0.038 0.721 -0.391,0.01047559,0.008530583,0.00523195
3-0172,monoCl,DQJIKJVSBIQVAP-UHFFFAOYSA-N,c1ccc2c(c1)c1c3c(ccc4c3cc(cc4)Cl)ccc1cc2,C22H13Cl,r2scan,312.799,13,22,1,-1306.195464173262,-1305.9017046129,0.0001975551,-1305.9606056592,7.308185051008,7.0994027877,0.0016780197,6.5991010727,0.2767133728,-5.4095,-2.3479,3.0616,1.85007,282.47945,0.05635 0.62364 -0.37105,0.010386,0.008307,0.005122
3-0172,monoCl,DQJIKJVSBIQVAP-UHFFFAOYSA-N,c1ccc2c(c1)c1c3c(ccc4c3cc(cc4)Cl)ccc1cc2,C22H13Cl,d4tzvp,312.799,13,22,1,-1307.124856414929,-1306.8310968545,0.0001975551,-1306.8899979008,7.205325998703,6.9965437351,0.0016780197,6.4962420214,0.2767133728,-7.9789,0.1032,8.0821,1.92303,273.57759,0.07204 0.65227 -0.37649,0.010386,0.008307,0.005122
3-0173,monoCl,DQKSMSAIQHGNOB-UHFFFAOYSA-N,c1ccc2c(c1)c1ccc3c(c1cc2)cc1c(c3)ccc2c1cccc2Cl,C26H15Cl,xtb2,362.859,15,26,1,-67.90965608448,-67.574268405878,0.000228297142,-67.64233519865,10.899183834989,10.662938348347,0.001834896982,10.115863811738,0.314438634847,-10.0126,-7.695,2.317548377057,2.331,279.852754,0.897 0.192 0.000,0.01969211,0.002503205,0.002220892
3-0173,monoCl,DQKSMSAIQHGNOB-UHFFFAOYSA-N,c1ccc2c(c1)c1ccc3c(c1cc2)cc1c(c3)ccc2c1cccc2Cl,C26H15Cl,r2scan,362.859,15,26,1,-1459.817480244946,-1459.4750604427,0.0002212315,-1459.54102062,8.60679340225,8.3635137799,0.0019684719,7.7766137309,0.3220532776,-5.2542,-2.6011,2.6531,2.20918,375.25718,0.84653 0.19696 0.00005,0.019461,0.002484,0.002203