id,subset,key,smiles,formula,level,mwt,nH,nC,nCl,E,H,S,G,dE,dH,dS,dG,zpe,homo,lumo,gap,Mu,alpha,tMu,rotA,rotB,rotC
2-0172,pubchemPCH,JVWDDQWEBVSDFI-UHFFFAOYSA-N,c1ccc2-c3c4c(-c2c1)cc1c(c4ccc3Cl)cccc1,C20H11Cl,r2scan,286.761,11,20,1,-1228.801841661576,-1228.5447946997,0.0001891358,-1228.6011855452,6.573538085228,6.3920264985,0.0014857228,5.9490581279,0.2413151052,-5.6809,-2.73,2.9509,2.06722,267.12216,0.69756 0.41815 -0.00001,0.016284,0.007514,0.005141
2-0172,pubchemPCH,JVWDDQWEBVSDFI-UHFFFAOYSA-N,c1ccc2-c3c4c(-c2c1)cc1c(c4ccc3Cl)cccc1,C20H11Cl,d4tzvp,286.761,11,20,1,-1229.647551543396,-1229.3905045815,0.0001891358,-1229.4468954269998,6.483702097416,6.3021905105,0.0014857228,5.859222141,0.2413151052,-8.2669,-0.3637,7.9032,2.06058,257.35898,0.68166 0.43879 -0.00001,0.016284,0.007514,0.005141
2-0173,pubchemPCH,JXNBEAAYOKCGFR-UHFFFAOYSA-N,Clc1c2-c3c(-c2c(c(c1Cl)Cl)Cl)c(Cl)c(c(c3Cl)Cl)Cl,C12Cl8,xtb2,427.756,0,12,8,-62.072981939435,-61.97566734017,0.000228468257,-62.043785151029,4.693224403367,4.643120371702,0.000876708647,4.381729688113,0.076972585346,-11.1313,-8.9332,2.198032229449,0.0,221.574418,0.000 -0.000 0.000,0.008885961,0.004041797,0.00277815
2-0173,pubchemPCH,JXNBEAAYOKCGFR-UHFFFAOYSA-N,Clc1c2-c3c(-c2c(c(c1Cl)Cl)Cl)c(Cl)c(c(c3Cl)Cl)Cl,C12Cl8,r2scan,427.756,0,12,8,-4138.538672361912,-4138.4396660238,0.0002186311,-4138.5048508979,3.640133007072,3.5883362782,0.0009463529,3.3061810063,0.0792523771,-6.0511,-3.4431,2.608,3E-05,267.66143,0.00000 0.00001 0.00000,0.008795,0.004021,0.002759
2-0173,pubchemPCH,JXNBEAAYOKCGFR-UHFFFAOYSA-N,Clc1c2-c3c(-c2c(c(c1Cl)Cl)Cl)c(Cl)c(c(c3Cl)Cl)Cl,C12Cl8,d4tzvp,427.756,0,12,8,-4139.316566065348,-4139.2175597272,0.0002186311,-4139.2827446013,3.624390655312,3.5725939268,0.0009463529,3.2904386549,0.0792523771,-8.7987,-0.8959,7.9028,7E-05,251.07769,-0.00000 -0.00000 -0.00003,0.008795,0.004021,0.002759
2-0174,pubchemPCH,JZJHCCZLWNUFMA-UHFFFAOYSA-N,Clc1c(Cl)c(Cl)c2c(c1Cl)cc1c(c2Cl)cccc1,C14H5Cl5,xtb2,350.459,5,14,5,-55.300382250681,-55.142696285325,0.000208879642,-55.204973750644,5.814193557086,5.71316027285,0.00103486638,5.404614861114,0.140090461656,-10.4823,-8.5678,1.91452867525,3.71,209.845994,-1.393 -0.437 -0.004,0.01237495,0.006367239,0.004204151
2-0174,pubchemPCH,JZJHCCZLWNUFMA-UHFFFAOYSA-N,Clc1c(Cl)c(Cl)c2c(c1Cl)cc1c(c2Cl)cccc1,C14H5Cl5,r2scan,350.459,5,14,5,-2837.272206828655,-2837.1108505648,0.0002004763,-2837.1706225619,4.564856736213,4.4601520036,0.0011144885,4.1278671066,0.144461718,-5.5391,-3.3025,2.2366,3.3734,251.40766,-1.24028 -0.46959 -0.05061,0.012174,0.006283,0.004209
2-0174,pubchemPCH,JZJHCCZLWNUFMA-UHFFFAOYSA-N,Clc1c(Cl)c(Cl)c2c(c1Cl)cc1c(c2Cl)cccc1,C14H5Cl5,d4tzvp,350.459,5,14,5,-2838.026541225975,-2837.8651849621,0.0002004763,-2837.9249569592,4.520512732413,4.4158079999,0.0011144885,4.0835231034,0.144461718,-8.1024,-0.9774,7.125,3.52909,241.8666,-1.29176 -0.50687 -0.04645,0.012174,0.006283,0.004209
2-0175,pubchemPCH,KAJIGPSLWZEBPC-UHFFFAOYSA-N,c1ccc2-c3c(-c2c1)c(Cl)c(c1c3cccc1)Cl,C16H8Cl2,xtb2,271.146,8,16,2,-47.385965597119,-47.191166718586,0.000188296147,-47.247307214774,6.580311273869,6.446886133216,0.001111142943,6.115598863932,0.179805524991,-10.0541,-8.0914,1.96273554962,2.998,186.505262,-0.298 -1.141 0.000,0.01661239,0.01005635,0.006264262
2-0175,pubchemPCH,KAJIGPSLWZEBPC-UHFFFAOYSA-N,c1ccc2-c3c(-c2c1)c(Cl)c(c1c3cccc1)Cl,C16H8Cl2,r2scan,271.146,8,16,2,-1534.681582515035,-1534.4831146547,0.0001837467,-1534.5378987314,5.159965056361,5.0228696883,0.0011938951,4.6669097482,0.1837395078,-5.121,-2.902,2.219,2.69737,228.82587,-0.18322 -1.04527 0.00004,0.016501,0.009942,0.006204
2-0175,pubchemPCH,KAJIGPSLWZEBPC-UHFFFAOYSA-N,c1ccc2-c3c(-c2c1)c(Cl)c(c1c3cccc1)Cl,C16H8Cl2,d4tzvp,271.146,8,16,2,-1535.401712491501,-1535.2032446312,0.0001837467,-1535.2580287079,5.091889969093,4.954794601,0.0011938951,4.5988346617,0.1837395078,-7.6886,-0.3999,7.2887,2.74087,220.33954,-0.16234 -1.06603 0.00004,0.016501,0.009942,0.006204
2-0176,pubchemPCH,KCIOHXRCFFLXAE-UHFFFAOYSA-N,c1cc(Cl)c2-c3c(-c2c1)cc(c(c3)Cl)Cl,C12H5Cl3,xtb2,255.531,5,12,3,-41.84543765929,-41.706913374757,0.000178062828,-41.760002806841,4.910891978347,4.819578261414,0.000842592096,4.568359427355,0.125150069508,-10.5241,-8.0464,2.477733129428,3.12,158.913469,-0.996 0.718 0.000,0.02915436,0.007843541,0.006180713
2-0176,pubchemPCH,KCIOHXRCFFLXAE-UHFFFAOYSA-N,c1cc(Cl)c2-c3c(-c2c1)cc(c(c3)Cl)Cl,C12H5Cl3,r2scan,255.531,5,12,3,-1840.657213053734,-1840.5162062086,0.0001717755,-1840.5674210593,3.842281712734,3.748484477,0.0009086495,3.4775705102,0.1278993314,-5.6026,-2.7606,2.842,3.03904,189.38869,-0.94398 0.73377 0.00003,0.028599,0.007791,0.006123
2-0176,pubchemPCH,KCIOHXRCFFLXAE-UHFFFAOYSA-N,c1cc(Cl)c2-c3c(-c2c1)cc(c(c3)Cl)Cl,C12H5Cl3,d4tzvp,255.531,5,12,3,-1841.254659629514,-1841.1136527844,0.0001717755,-1841.1648676351,3.798864030678,3.705066795,0.0009086495,3.4341528287,0.1278993314,-8.335,-0.1276,8.2074,3.15075,181.61819,-0.98887 0.74746 0.00003,0.028599,0.007791,0.006123
2-0177,pubchemPCH,KDESKANVMYVELW-UHFFFAOYSA-N,c1c2c(ccc(c2Cl)Cl)cc2c1ccc(c2Cl)Cl,C14H6Cl4,xtb2,316.014,6,14,4,-51.266741245758,-51.100738163891,0.000196028479,-51.159184054875,5.869594923188,5.760244522441,0.001030813147,5.452907582031,0.14977611494,-10.4821,-8.4315,2.050630639802,0.0,196.958667,-0.000 0.000 -0.000,0.02621311,0.004423542,0.003784839
2-0177,pubchemPCH,KDESKANVMYVELW-UHFFFAOYSA-N,c1c2c(ccc(c2Cl)Cl)cc2c1ccc(c2Cl)Cl,C14H6Cl4,r2scan,316.014,6,14,4,-2377.718611631511,-2377.5489003265,0.0001898394,-2377.6055009489,4.627983141837,4.5149233681,0.0011082136,4.1845093621,0.1540165843,-5.5851,-3.157,2.4281,1E-05,239.20728,0.00000 -0.00000 0.00000,0.025756,0.004379,0.003743
2-0177,pubchemPCH,KDESKANVMYVELW-UHFFFAOYSA-N,c1c2c(ccc(c2Cl)Cl)cc2c1ccc(c2Cl)Cl,C14H6Cl4,d4tzvp,316.014,6,14,4,-2378.435195592128,-2378.2654842871,0.0001898394,-2378.3220849095,4.576443060806,4.4633832871,0.0011082136,4.1329692817,0.1540165843,-8.1546,-0.7795,7.3751,1E-05,230.01864,0.00000 0.00000 0.00000,0.025756,0.004379,0.003743
2-0178,pubchemPCH,KGFAQFGJOHSHEJ-UHFFFAOYSA-N,c1cc(Cl)c2c3c1ccc(c3c1c3c2c(Cl)ccc3ccc1Cl)Cl,C20H8Cl4,xtb2,390.096,8,20,4,-65.154514213325,-64.927592733827,0.000215437838,-64.991825525107,8.210624134693,8.059239563355,0.001413498606,7.637804952851,0.207275562487,-10.149,-8.38,1.768954043121,0.0,254.224041,0.000 -0.000 -0.000,0.009151857,0.00575994,0.004101622
2-0178,pubchemPCH,KGFAQFGJOHSHEJ-UHFFFAOYSA-N,c1cc(Cl)c2c3c1ccc(c3c1c3c2c(Cl)ccc3ccc1Cl)Cl,C20H8Cl4,r2scan,390.096,8,20,4,-2607.519916419346,-2607.287791955,0.0002095821,-2607.3502788561,6.441448034694,6.2848589454,0.0015160119,5.8328598333,0.2131953935,-5.2854,-3.1683,2.1171,0.00217,304.04429,-0.00000 0.00085 0.00002,0.008867,0.005702,0.004096
2-0178,pubchemPCH,KGFAQFGJOHSHEJ-UHFFFAOYSA-N,c1cc(Cl)c2c3c1ccc(c3c1c3c2c(Cl)ccc3ccc1Cl)Cl,C20H8Cl4,d4tzvp,390.096,8,20,4,-2608.469885181136,-2608.2377607168,0.0002095821,-2608.3002476179,6.364207848436,6.2076187592,0.0015160119,5.7556196479,0.2131953935,-7.7744,-0.8977,6.8767,0.0014,291.53223,-0.00005 0.00055 0.00001,0.008867,0.005702,0.004096
2-0179,pubchemPCH,KLQGUZLIMUFPCD-UHFFFAOYSA-N,c1c(Cl)c(Cl)cc2c1c(Cl)c1c(c2Cl)c(Cl)c2c(c1Cl)cccc2,C18H6Cl6,xtb2,434.964,6,18,6,-68.934176243151,-68.736980898475,0.000235575797,-68.807217822341,7.398794165199,7.272414671923,0.001320763183,6.878629128083,0.17543119443,-10.2077,-8.9466,1.261103003574,3.174,261.937751,1.249 0.000 -0.000,0.009265748,0.003344159,0.002501354
2-0179,pubchemPCH,KLQGUZLIMUFPCD-UHFFFAOYSA-N,c1c(Cl)c(Cl)cc2c1c(Cl)c1c(c2Cl)c(Cl)c2c(c1Cl)cccc2,C18H6Cl6,r2scan,434.964,6,18,6,-3450.44193192633,-3450.2402822092,0.0002292605,-3450.3086362314,5.794452510678,5.6636172076,0.0014167447,5.241214605,0.1805854644,-5.2317,-3.8455,1.3862,3.02866,348.4341,1.19154 0.00008 -0.00003,0.009097,0.003305,0.002516
2-0179,pubchemPCH,KLQGUZLIMUFPCD-UHFFFAOYSA-N,c1c(Cl)c(Cl)cc2c1c(Cl)c1c(c2Cl)c(Cl)c2c(c1Cl)cccc2,C18H6Cl6,d4tzvp,434.964,6,18,6,-3451.385650732096,-3451.184001015,0.0002292605,-3451.2523550372,5.731043390482,5.6002080876,0.0014167447,5.1778054856,0.1805854644,-7.6388,-1.7085,5.9303,3.22585,331.79395,1.26912 0.00006 -0.00005,0.009097,0.003305,0.002516
2-0180,pubchemPCH,KLTOHLDJYCGNCE-UHFFFAOYSA-N,Clc1c(Cl)c(Cl)c2c3c1c(Cl)c(Cl)c1c3c(c(c2Cl)Cl)c(c(c1)Cl)Cl,C16HCl9,xtb2,512.261,1,16,9,-75.789547664612,-75.651929604159,0.000252917663,-75.727337005471,6.360596744187,6.284352421614,0.001164852199,5.937051737827,0.113993215594,-10.8803,-9.0303,1.849954633465,0.694,277.505411,0.113 0.244 -0.043,0.005052706,0.00358636,0.002160204
2-0180,pubchemPCH,KLTOHLDJYCGNCE-UHFFFAOYSA-N,Clc1c(Cl)c(Cl)c2c3c1c(Cl)c(Cl)c1c3c(c(c2Cl)Cl)c(c(c1)Cl)Cl,C16HCl9,r2scan,512.261,1,16,9,-4751.784546871178,-4751.6440389065,0.0002417872,-4751.7161277485,4.945878193127,4.8667427205,0.0012542372,4.4927916858,0.1176805504,-6.0079,-3.5564,2.4515,0.73411,340.99422,0.07218 0.27735 -0.03582,0.004909,0.003564,0.002224
2-0180,pubchemPCH,KLTOHLDJYCGNCE-UHFFFAOYSA-N,Clc1c(Cl)c(Cl)c2c3c1c(Cl)c(Cl)c1c3c(c(c2Cl)Cl)c(c(c1)Cl)Cl,C16HCl9,d4tzvp,512.261,1,16,9,-4752.757006366202,-4752.6164984015,0.0002417872,-4752.6885872435,4.916252108114,4.8371166359,0.0012542372,4.4631656013,0.1176805504,-8.5617,-1.3332,7.2285,0.85233,321.78048,0.10096 0.31844 -0.02911,0.004909,0.003564,0.002224
2-0181,pubchemPCH,KLXQEWOACHMKCJ-UHFFFAOYSA-N,Clc1cc(Cl)c2c(c1)ccc1c2c2ccccc2cc1,C18H10Cl2,xtb2,297.184,10,18,2,-52.759291308544,-52.528731330243,0.000195013585,-52.586874630583,7.580078714692,7.420334587791,0.001293707811,7.034615603069,0.214341189971,-10.3392,-7.6776,2.661602681106,2.584,212.226918,0.659 -0.739 0.232,0.01837696,0.007013737,0.005436543
2-0181,pubchemPCH,KLXQEWOACHMKCJ-UHFFFAOYSA-N,Clc1cc(Cl)c2c(c1)ccc1c2c2ccccc2cc1,C18H10Cl2,r2scan,297.184,10,18,2,-1612.16078758483,-1611.9247584306,0.0001890067,-1611.9811107864,5.98019458025,5.8149798402,0.0013893513,5.400744634,0.220429122,-5.556,-2.5409,3.0151,2.23058,250.4116,0.55109 -0.64879 0.21327,0.018095,0.006845,0.00535
2-0181,pubchemPCH,KLXQEWOACHMKCJ-UHFFFAOYSA-N,Clc1cc(Cl)c2c(c1)ccc1c2c2ccccc2cc1,C18H10Cl2,d4tzvp,297.184,10,18,2,-1612.96634832093,-1612.7303191667,0.0001890067,-1612.7866715225,5.900844828276,5.7356300881,0.0013893513,5.3213948829,0.220429122,-8.1563,-0.1074,8.0489,2.22612,241.76934,0.51266 -0.67529 0.21955,0.018095,0.006845,0.00535
2-0182,pubchemPCH,KMELMWFBWFBNHL-UHFFFAOYSA-N,c1c(Cl)cc2c(c1Cl)ccc1c2cccc1Cl,C14H7Cl3,xtb2,281.569,7,14,3,-47.226170992601,-47.051561271066,0.000187911228,-47.107587003785,5.918067041056,5.800110000641,0.001022026002,5.495392947627,0.159712678799,-10.6458,-7.7937,2.852099155775,1.671,184.445458,-0.394 -0.526 0.000,0.01936429,0.007026308,0.005155604
2-0182,pubchemPCH,KMELMWFBWFBNHL-UHFFFAOYSA-N,c1c(Cl)cc2c(c1Cl)ccc1c2cccc1Cl,C14H7Cl3,r2scan,281.569,7,14,3,-1918.149248674104,-1917.9707894484,0.0001834184,-1918.0254756457,4.675341787198,4.5535340928,0.0010977228,4.2262479274,0.1639778263,-5.882,-2.4973,3.3847,1.53995,212.30092,-0.35469 -0.49117 0.00002,0.019128,0.00694,0.005093
2-0182,pubchemPCH,KMELMWFBWFBNHL-UHFFFAOYSA-N,c1c(Cl)cc2c(c1Cl)ccc1c2cccc1Cl,C14H7Cl3,d4tzvp,281.569,7,14,3,-1918.832562934811,-1918.6541037091,0.0001834184,-1918.7087899064,4.621086365729,4.4992786713,0.0010977228,4.1719925066,0.1639778263,-8.5532,0.0012,8.5544,1.58936,205.95865,-0.36248 -0.50951 0.00002,0.019128,0.00694,0.005093
2-0183,pubchemPCH,KNMMEDCCXYQFAX-UHFFFAOYSA-N,c1c2c(Cl)cc(c3c2c2c(c1)c(Cl)cc(c2cc3)Cl)Cl,C16H6Cl4,xtb2,340.036,6,16,4,-55.58408199045,-55.404564281778,0.000198529005,-55.463755704604,6.60034292515,6.482198954358,0.001134718877,6.14388252039,0.162539768805,-10.4298,-8.3516,2.078189661072,0.001,214.257357,0.000 -0.000 0.000,0.01139471,0.005967789,0.003916558
2-0183,pubchemPCH,KNMMEDCCXYQFAX-UHFFFAOYSA-N,c1c2c(Cl)cc(c3c2c2c(c1)c(Cl)cc(c2cc3)Cl)Cl,C16H6Cl4,r2scan,340.036,6,16,4,-2453.952391374197,-2453.7694001704,0.0001967044,-2453.8280475956,5.197330709987,5.0757119984,0.001214761,4.7135308754,0.1662134991,-5.5659,-3.0341,2.5318,0.00024,262.84866,0.00009 -0.00000 -0.00000,0.011289,0.005884,0.003868
2-0183,pubchemPCH,KNMMEDCCXYQFAX-UHFFFAOYSA-N,c1c2c(Cl)cc(c3c2c2c(c1)c(Cl)cc(c2cc3)Cl)Cl,C16H6Cl4,d4tzvp,340.036,6,16,4,-2454.741211021548,-2454.5582198177,0.0001967044,-2454.6168672429,5.13683657466,5.0152178631,0.001214761,4.6530367407,0.1662134991,-8.0102,-0.7885,7.2217,9E-05,253.30476,-0.00002 -0.00001 -0.00003,0.011289,0.005884,0.003868
2-0184,pubchemPCH,KOEWTFBBAYJWPA-UHFFFAOYSA-N,c1ccc2c(c1)cc1c(c2)cc2c(c1)cc1c(c2)cccc1Cl,C22H13Cl,xtb2,312.799,13,22,1,-58.29404940603,-58.008036796866,0.000206797442,-58.069693454203,9.243728169871,9.042694582387,0.00156070812,8.577369455333,0.268038730979,-9.532,-8.3117,1.220291577284,1.998,239.899725,0.443 -0.649 -0.000,0.02696356,0.003331325,0.002965002
2-0184,pubchemPCH,KOEWTFBBAYJWPA-UHFFFAOYSA-N,c1ccc2c(c1)cc1c(c2)cc2c(c1)cc1c(c2)cccc1Cl,C22H13Cl,r2scan,312.799,13,22,1,-1306.183180658781,-1305.8908017948,0.0002007713,-1305.9506617532,7.295901536527,7.0884999696,0.0016748035,6.5891571667,0.2749822906,-4.6027,-3.3196,1.2831,1.85756,345.43536,0.40348 -0.60933 0.00002,0.026567,0.003307,0.002941
2-0184,pubchemPCH,KOEWTFBBAYJWPA-UHFFFAOYSA-N,c1ccc2c(c1)cc1c(c2)cc2c(c1)cc1c(c2)cccc1Cl,C22H13Cl,d4tzvp,312.799,13,22,1,-1307.102354798007,-1306.809975934,0.0002007713,-1306.8698358924,7.182824381781,6.9754228146,0.0016748035,6.476080013,0.2749822906,-6.8651,-1.1424,5.7227,1.82995,330.90234,0.36430 -0.62097 0.00003,0.026567,0.003307,0.002941
2-0185,pubchemPCH,KPOZENRUJCHWOA-UHFFFAOYSA-N,Clc1cc(Cl)c2c(c1Cl)ccc(c2Cl)Cl,C10H3Cl5,xtb2,300.399,3,10,5,-45.71383385629,-45.60409542269,0.000187974362,-45.660139978804,4.187796176027,4.120547253267,0.000760083098,3.893928477316,0.095095291897,-10.8425,-8.3257,2.516774218781,1.044,169.731437,-0.080 -0.403 0.000,0.01880107,0.008105201,0.005663604
2-0185,pubchemPCH,KPOZENRUJCHWOA-UHFFFAOYSA-N,Clc1cc(Cl)c2c(c1Cl)ccc(c2Cl)Cl,C10H3Cl5,r2scan,300.399,3,10,5,-2683.675353742404,-2683.5631787056,0.0001833103,-2683.6178326616,3.291411370404,3.221724982,0.0008175259,2.9779795089,0.0979358496,-6.0199,-2.925,3.0949,1.19376,188.17529,-0.10442 -0.45601 -0.04154,0.018238,0.008004,0.00559
2-0185,pubchemPCH,KPOZENRUJCHWOA-UHFFFAOYSA-N,Clc1cc(Cl)c2c(c1Cl)ccc(c2Cl)Cl,C10H3Cl5,d4tzvp,300.399,3,10,5,-2684.271623481259,-2684.1594484445,0.0001833103,-2684.2141024005,3.266897873509,3.1972114853,0.0008175259,2.9534660125,0.0979358496,-8.7707,-0.4469,8.3238,1.27419,181.8605,-0.13238 -0.48144 -0.04457,0.018238,0.008004,0.00559
2-0186,pubchemPCH,KQZUIOXHRIVQGR-UHFFFAOYSA-N,Clc1cc(Cl)c2c(c1)c(Cl)c(cc2)Cl,C10H4Cl4,xtb2,265.954,4,10,4,-41.675569694935,-41.557496371025,0.000178309995,-41.610659496159,4.238574385697,4.162990572627,0.000752843069,3.938530411357,0.104725190218,-10.897,-8.1554,2.741632291493,1.268,157.070643,-0.035 0.498 0.000,0.01977134,0.009986296,0.006635018
2-0186,pubchemPCH,KQZUIOXHRIVQGR-UHFFFAOYSA-N,Clc1cc(Cl)c2c(c1)c(Cl)c(cc2)Cl,C10H4Cl4,r2scan,265.954,4,10,4,-2224.114994219733,-2223.9941496625,0.0001733931,-2224.045846816,3.347773450501,3.2694175417,0.0008105313,3.0277575318,0.1079306043,-6.1101,-2.7917,3.3184,1.30386,173.55816,-0.02785 0.51221 0.00007,0.019499,0.009862,0.00655
2-0186,pubchemPCH,KQZUIOXHRIVQGR-UHFFFAOYSA-N,Clc1cc(Cl)c2c(c1)c(Cl)c(cc2)Cl,C10H4Cl4,d4tzvp,265.954,4,10,4,-2224.674205295948,-2224.5533607387,0.0001733931,-2224.6050578922,3.316755650438,3.2383997417,0.0008105313,2.9967397322,0.1079306043,-8.8764,-0.2761,8.6003,1.33745,168.44505,-0.03577 0.52497 0.00007,0.019499,0.009862,0.00655
2-0187,pubchemPCH,KSOQIONQLRLVCS-UHFFFAOYSA-N,c1ccc2c(c1)cc1c(c2Cl)c(Cl)c(cc1)Cl,C14H7Cl3,xtb2,281.569,7,14,3,-47.208785095483,-47.034594430069,0.000186914918,-47.090323112975,5.900681143938,5.783143159644,0.001023022312,5.478129056817,0.159331583461,-10.2219,-8.2218,2.000053660084,3.947,184.710041,-1.053 -1.141 0.000,0.02494894,0.007956942,0.006032882
2-0187,pubchemPCH,KSOQIONQLRLVCS-UHFFFAOYSA-N,c1ccc2c(c1)cc1c(c2Cl)c(Cl)c(cc1)Cl,C14H7Cl3,r2scan,281.569,7,14,3,-1918.121588964001,-1917.9434826095,0.000181596,-1917.9976254608,4.647682077095,4.5262272539,0.0010995452,4.1983977425,0.1637429487,-5.3512,-3.023,2.3282,3.79388,219.20095,-0.97858 -1.12691 -0.01774,0.024364,0.007828,0.005988
2-0187,pubchemPCH,KSOQIONQLRLVCS-UHFFFAOYSA-N,c1ccc2c(c1)cc1c(c2Cl)c(Cl)c(cc1)Cl,C14H7Cl3,d4tzvp,281.569,7,14,3,-1918.802840435445,-1918.6247340809,0.000181596,-1918.6788769322,4.591363866363,4.4699090431,0.0010995452,4.1420795324,0.1637429487,-7.9092,-0.6607,7.2485,3.94991,212.86198,-1.00824 -1.18224 -0.02460,0.024364,0.007828,0.005988
2-0188,pubchemPCH,KSRBLBAPPHYASO-UHFFFAOYSA-N,c1c(Cl)c2ccc3c4c2c(c1Cl)cc(c4c(cc3Cl)Cl)Cl,C16H5Cl5,xtb2,374.481,5,16,5,-59.626750074613,-59.455567653135,0.000213059326,-59.519091291049,6.553968638288,6.44415995469,0.001137092952,6.105135690149,0.152853823293,-10.5037,-8.5112,1.992586988368,1.278,226.765331,0.185 0.468 -0.000,0.008631357,0.005710195,0.003436639
2-0188,pubchemPCH,KSRBLBAPPHYASO-UHFFFAOYSA-N,c1c(Cl)c2ccc3c4c2c(c1Cl)cc(c4c(cc3Cl)Cl)Cl,C16H5Cl5,r2scan,374.481,5,16,5,-2913.517935489173,-2913.3433509084,0.0002086036,-2913.4055460778,5.146153222195,5.0329411336,0.0012197736,4.6692654891,0.1565723521,-5.6237,-3.1786,2.4451,1.35236,279.82506,0.20260 0.49195 0.00307,0.008512,0.005627,0.003402
2-0188,pubchemPCH,KSRBLBAPPHYASO-UHFFFAOYSA-N,c1c(Cl)c2ccc3c4c2c(c1Cl)cc(c4c(cc3Cl)Cl)Cl,C16H5Cl5,d4tzvp,374.481,5,16,5,-2914.34271424785,-2914.168129667,0.0002086036,-2914.2303248364,5.091063838722,4.9778517502,0.0012197736,4.6141761062,0.1565723521,-8.0735,-0.956,7.1175,1.43353,268.55278,0.23392 0.51318 0.00200,0.008512,0.005627,0.003402
2-0189,pubchemPCH,KUDMYUUIGABJTM-UHFFFAOYSA-N,c1cc(Cl)c2c3c1c1ccc(c4c1c(c3ccc2Cl)ccc4Cl)Cl,C20H8Cl4,xtb2,390.096,8,20,4,-65.161009420921,-64.933409579598,0.000218060381,-64.998424282087,8.217119342289,8.065056409126,0.001410876063,7.644403709831,0.207741939755,-10.0987,-8.4709,1.627780586842,0.0,254.237932,0.000 -0.000 -0.000,0.015243,0.003168587,0.002641771
2-0189,pubchemPCH,KUDMYUUIGABJTM-UHFFFAOYSA-N,c1cc(Cl)c2c3c1c1ccc(c4c1c(c3ccc2Cl)ccc4Cl)Cl,C20H8Cl4,r2scan,390.096,8,20,4,-2607.525116940201,-2607.293194276,0.000213715,-2607.3569134009,6.446648555549,6.2902612664,0.001511879,5.8394943781,0.2123522591,-5.1615,-3.3156,1.8459,0.0,334.84111,0.00000 0.00000 0.00000,0.014754,0.003127,0.002621
2-0189,pubchemPCH,KUDMYUUIGABJTM-UHFFFAOYSA-N,c1cc(Cl)c2c3c1c1ccc(c4c1c(c3ccc2Cl)ccc4Cl)Cl,C20H8Cl4,d4tzvp,390.096,8,20,4,-2608.474057645834,-2608.2421349816,0.000213715,-2608.3058541065,6.368380313134,6.211993024,0.001511879,5.7612261365,0.2123522591,-7.5406,-1.1304,6.4102,7E-05,314.49779,-0.00000 0.00003 -0.00000,0.014754,0.003127,0.002621
2-0190,pubchemPCH,KULLJOPUZUWTMF-UHFFFAOYSA-N,c1ccc2c(c1)cc1c(c2Cl)cccc1,C14H9Cl,xtb2,212.679,9,14,1,-39.116585497796,-38.925845758344,0.000163745014,-38.974666334169,5.986566288301,5.852479229969,0.001012383424,5.550637111383,0.178502056802,-9.9819,-7.8334,2.148444322593,1.697,159.959917,-0.000 -0.668 -0.000,0.03257017,0.01519659,0.01036192
2-0190,pubchemPCH,KULLJOPUZUWTMF-UHFFFAOYSA-N,c1ccc2c(c1)cc1c(c2Cl)cccc1,C14H9Cl,r2scan,212.679,9,14,1,-998.978321596541,-998.7831824903,0.0001597499,-998.8308119254,4.737857915171,4.5993703403,0.0010875677,4.2751119441,0.183324142,-5.1717,-2.72,2.4517,1.61245,186.07678,-0.00000 -0.63437 -0.00001,0.031972,0.015083,0.010248
2-0190,pubchemPCH,KULLJOPUZUWTMF-UHFFFAOYSA-N,c1ccc2c(c1)cc1c(c2Cl)cccc1,C14H9Cl,d4tzvp,212.679,9,14,1,-999.587828006459,-999.3926889003,0.0001597499,-999.4403183354,4.670903361857,4.5324157869,0.0010875677,4.2081573916,0.183324142,-7.7174,-0.3221,7.3953,1.66451,183.4618,-0.00000 -0.65485 -0.00001,0.031972,0.015083,0.010248
2-0191,pubchemPCH,KWFFUTRENJDNEP-UHFFFAOYSA-N,c1cc(Cl)c2c(c1)c(Cl)c1c(c2)c(Cl)ccc1,C14H7Cl3,xtb2,281.569,7,14,3,-47.219633878191,-47.045239941323,0.000185320422,-47.100493225267,5.911529926646,5.793788670898,0.001024616808,5.488299169109,0.159522218025,-10.3088,-8.2722,2.036599977378,1.504,184.443705,-0.000 -0.592 -0.000,0.01401463,0.01091824,0.006137084