id,subset,key,smiles,formula,level,mwt,nH,nC,nCl,E,H,S,G,dE,dH,dS,dG,zpe,homo,lumo,gap,Mu,alpha,tMu,rotA,rotB,rotC
1-0058,pubchemPAH,KKWNFCVLJZXKCD-UHFFFAOYSA-N,c1c2c(cc3c(c2)c2ccccc2cc3)cc2c1ccc1c2cccc1,C26H16,r2scan,328.414,16,26,0,-1000.231346207977,-999.8808702281,0.0002082859,-999.94297068,8.637380968049,8.3860451681,0.0019645057,7.8003276594,0.3315114094,-4.8923,-2.745,2.1473,3E-05,377.67507,-0.00000 0.00001 -0.00001,0.024808,0.002916,0.002609
1-0058,pubchemPAH,KKWNFCVLJZXKCD-UHFFFAOYSA-N,c1c2c(cc3c(c2)c2ccccc2cc3)cc2c1ccc1c2cccc1,C26H16,d4tzvp,328.414,16,26,0,-1001.283146001905,-1000.932670022,0.0002082859,-1000.9947704739,8.509588662107,8.2582528618,0.0019645057,7.6725353547,0.3315114094,-7.3062,-0.4315,6.8747,2E-05,354.58022,0.00001 0.00000 -0.00000,0.024808,0.002916,0.002609
1-0059,pubchemPAH,KLIHYVJAYWCEDM-UHFFFAOYSA-N,c1ccc2c(c1)ccc1c2cc2c(c1)ccc1c2cccc1,C22H14,xtb2,278.354,14,22,0,-54.262853814987,-53.967501995462,0.00019464952,-54.025536749804,9.301574949853,9.091202152008,0.001555951646,8.62729516762,0.27869653965,-9.9827,-7.3786,2.604086592143,0.006,227.767918,0.000 -0.002 0.000,0.0224867,0.005730531,0.004566739
1-0059,pubchemPAH,KLIHYVJAYWCEDM-UHFFFAOYSA-N,c1ccc2c(c1)ccc1c2cc2c(c1)ccc1c2cccc1,C22H14,r2scan,278.354,14,22,0,-846.626372098461,-846.3247200649,0.0001891982,-846.3811295089,7.355814578975,7.1391398425,0.0016694648,6.6413887909,0.2854947048,-5.2484,-2.3267,2.9217,0.09864,288.11083,0.00000 -0.03881 -0.00000,0.022257,0.005688,0.00453
1-0059,pubchemPAH,KLIHYVJAYWCEDM-UHFFFAOYSA-N,c1ccc2c(c1)ccc1c2cc2c(c1)ccc1c2cccc1,C22H14,d4tzvp,278.354,14,22,0,-847.521714673429,-847.2200626398,0.0001891982,-847.2764720838,7.249460219443,7.0327854826,0.0016694648,6.5350344324,0.2854947048,-7.7842,0.0917,7.8759,0.04284,276.53904,-0.00001 -0.01685 -0.00001,0.022257,0.005688,0.00453
1-0060,pubchemPAH,KUVDSBPSRCGLQY-UHFFFAOYSA-N,c1ccc2c(c1)ccc1c2ccc2c1c1c(cc2)ccc2c1cccc2,C26H16,xtb2,328.414,16,26,0,-63.850106180024,-63.506760715843,0.000214353176,-63.570670115122,10.928676301558,10.684473029337,0.001831936552,10.138281144896,0.324075952791,-9.9409,-7.3377,2.603236474354,0.169,267.730147,-0.046 0.046 0.010,0.01275671,0.005430737,0.004032534
1-0060,pubchemPAH,KUVDSBPSRCGLQY-UHFFFAOYSA-N,c1ccc2c(c1)ccc1c2ccc2c1c1c(cc2)ccc2c1cccc2,C26H16,r2scan,328.414,16,26,0,-1000.224043874789,-999.8726213868,0.0002064372,-999.934170649,8.630078634861,8.3777963268,0.0019663544,7.7915276284,0.3329123078,-5.2623,-2.2609,3.0014,0.11535,330.628,-0.03925 0.01235 0.01914,0.012703,0.005295,0.003953
1-0060,pubchemPAH,KUVDSBPSRCGLQY-UHFFFAOYSA-N,c1ccc2c(c1)ccc1c2ccc2c1c1c(cc2)ccc2c1cccc2,C26H16,d4tzvp,328.414,16,26,0,-1001.277993489207,-1000.9265710012,0.0002064372,-1000.9881202634,8.504436149409,8.252153841,0.0019663544,7.6658851442,0.3329123078,-7.796,0.1309,7.9269,0.14105,318.21854,-0.04631 0.02728 0.01381,0.012703,0.005295,0.003953
1-0061,pubchemPAH,LFGDHICYJIULAO-UHFFFAOYSA-N,c1ccc2-c3c4c(-c2c1)cc1c2ccccc2ccc1c4ccc3,C24H14,xtb2,302.376,14,24,0,-58.553499215524,-58.245177054866,0.000203388084,-58.305817212146,10.00562760766,9.787005525442,0.001653619338,9.293978918592,0.290701008596,-10.0624,-7.7424,2.31994165456,0.492,245.025824,0.183 -0.063 -0.000,0.01662997,0.005482036,0.004122923
1-0061,pubchemPAH,LFGDHICYJIULAO-UHFFFAOYSA-N,c1ccc2-c3c4c(-c2c1)cc1c2ccccc2ccc1c4ccc3,C24H14,r2scan,302.376,14,24,0,-922.828255634028,-922.5137274593,0.0001986003,-922.5729401521,7.893265940006,7.6684360233,0.0017734751,7.1396743007,0.2972854093,-5.3576,-2.6657,2.6919,0.45705,312.63304,0.17299 -0.04908 0.00000,0.016473,0.005438,0.004088
1-0061,pubchemPAH,LFGDHICYJIULAO-UHFFFAOYSA-N,c1ccc2-c3c4c(-c2c1)cc1c2ccccc2ccc1c4ccc3,C24H14,d4tzvp,302.376,14,24,0,-923.798026997835,-923.4834988231,0.0001986003,-923.5427115159,7.780150628283,7.5553207113,0.0017734751,7.0265589901,0.2972854093,-7.8543,-0.3327,7.5216,0.33472,299.81547,0.12657 -0.03634 -0.00001,0.016473,0.005438,0.004088
1-0062,pubchemPAH,LHRCREOYAASXPZ-UHFFFAOYSA-N,c1ccc2c(c1)c1cc3ccc4c(c3cc1cc2)cccc4,C22H14,xtb2,278.354,14,22,0,-54.263228257267,-53.967871927443,0.000194169821,-54.025763659653,9.301949392133,9.091572083989,0.001556431345,8.627522077469,0.278722931648,-9.9494,-7.4131,2.536374263674,0.0,227.768683,0.000 -0.000 0.000,0.03086993,0.004973292,0.004283242
1-0062,pubchemPAH,LHRCREOYAASXPZ-UHFFFAOYSA-N,c1ccc2c(c1)c1cc3ccc4c(c3cc1cc2)cccc4,C22H14,r2scan,278.354,14,22,0,-846.626709737067,-846.3250365043,0.0001890505,-846.3814019012,7.356152217581,7.1394562819,0.0016696125,6.6416611832,0.2855249333,-5.2134,-2.3313,2.8821,2E-05,293.1874,0.00000 0.00000 0.00001,0.030571,0.004932,0.004247
1-0062,pubchemPAH,LHRCREOYAASXPZ-UHFFFAOYSA-N,c1ccc2c(c1)c1cc3ccc4c(c3cc1cc2)cccc4,C22H14,d4tzvp,278.354,14,22,0,-847.522025758399,-847.2203525256,0.0001890505,-847.2767179225,7.249771304413,7.0330753684,0.0016696125,6.5352802711,0.2855249333,-7.7354,0.087,7.8224,4E-05,280.70704,-0.00000 -0.00000 0.00002,0.030571,0.004932,0.004247
1-0063,pubchemPAH,MNLVNTCOPRDBLJ-UHFFFAOYSA-N,c1ccc2c(c1)ccc1c2ccc2c1ccc1c2c2ccccc2cc1,C26H16,xtb2,328.414,16,26,0,-63.852604724826,-63.508906342365,0.000215171381,-63.573059689641,10.93117484636,10.686618655859,0.001831118347,10.140670719415,0.324347870116,-9.9403,-7.3397,2.600558025731,0.093,267.703838,-0.033 0.013 -0.009,0.01785119,0.003798399,0.003181143
1-0063,pubchemPAH,MNLVNTCOPRDBLJ-UHFFFAOYSA-N,c1ccc2c(c1)ccc1c2ccc2c1ccc1c2c2ccccc2cc1,C26H16,r2scan,328.414,16,26,0,-1000.229549101423,-999.8779163573,0.0002081192,-999.9399670921,8.635583861495,8.3830912973,0.0019646724,7.7973240715,0.3329803525,-5.2603,-2.2458,3.0145,0.09718,345.36426,-0.03272 -0.00070 -0.01976,0.01784,0.003735,0.003131
1-0063,pubchemPAH,MNLVNTCOPRDBLJ-UHFFFAOYSA-N,c1ccc2c(c1)ccc1c2ccc2c1ccc1c2c2ccccc2cc1,C26H16,d4tzvp,328.414,16,26,0,-1001.284265401917,-1000.9326326578,0.0002081192,-1000.9946833926,8.510708062119,8.2582154976,0.0019646724,7.6724482734,0.3329803525,-7.7781,0.1467,7.9248,0.09441,329.92819,-0.03132 0.01123 -0.01650,0.01784,0.003735,0.003131
1-0064,pubchemPAH,MTMMXWXIBHDDEE-UHFFFAOYSA-N,c1ccc2c(c1)c1-c3c(-c1cc2)ccc1c3cccc1,C20H12,xtb2,252.316,12,20,0,-48.875845152614,-48.616907772588,0.000184237722,-48.671838249472,8.288124558082,8.104724086216,0.001377081138,7.69414734396,0.243803502659,-9.4705,-7.8336,1.636878731036,0.051,202.082581,0.000 0.020 0.000,0.02461476,0.007973839,0.006022786
1-0064,pubchemPAH,MTMMXWXIBHDDEE-UHFFFAOYSA-N,c1ccc2c(c1)c1-c3c(-c1cc2)ccc1c3cccc1,C20H12,r2scan,252.316,12,20,0,-769.127410623997,-768.8631776113,0.0001798514,-768.916800318,6.515828650417,6.3271310129,0.0014780954,5.8864367692,0.2494468404,-4.6039,-2.7743,1.8296,0.03721,256.29587,-0.00000 -0.01464 0.00001,0.024504,0.007864,0.005953
1-0064,pubchemPAH,MTMMXWXIBHDDEE-UHFFFAOYSA-N,c1ccc2c(c1)c1-c3c(-c1cc2)ccc1c3cccc1,C20H12,d4tzvp,252.316,12,20,0,-769.933459219912,-769.6692262071999,0.0001798514,-769.7228489139,6.416885736172,6.2281880984,0.0014780954,5.7874938559,0.2494468404,-7.057,-0.2867,6.7703,0.06938,246.35241,0.00000 -0.02730 0.00003,0.024504,0.007864,0.005953
1-0065,pubchemPAH,MWPLVEDNUUSJAV-UHFFFAOYSA-N,c1c2c(cccc2)cc2c1cccc2,C14H10,xtb2,178.234,10,14,0,-35.064558360146,-34.865805389326,0.000150186527,-34.910583502237,6.023581521676,5.881481231976,0.001009037515,5.580636696137,0.187845001642,-9.8401,-7.5743,2.26574663982,0.0,147.822141,0.000 0.000 -0.000,0.07269068,0.0152603,0.0126125
1-0065,pubchemPAH,MWPLVEDNUUSJAV-UHFFFAOYSA-N,c1c2c(cccc2)cc2c1cccc2,C14H10,r2scan,178.234,10,14,0,-539.397490676546,-539.1942272894,0.0001471153,-539.2380897064,4.773748597944,4.6271367422,0.0010832905,4.3041535936,0.1927260433,-5.0507,-2.4864,2.5643,2E-05,173.05661,0.00000 0.00001 -0.00000,0.071763,0.015151,0.01251
1-0065,pubchemPAH,MWPLVEDNUUSJAV-UHFFFAOYSA-N,c1c2c(cccc2)cc2c1cccc2,C14H10,d4tzvp,178.234,10,14,0,-539.971258143041,-539.7679947559001,0.0001471153,-539.8118571729001,4.701609460679,4.5549976047,0.0010832905,4.2320144571,0.1927260433,-7.5995,-0.0552,7.5443,1E-05,171.18584,0.00000 0.00000 0.00000,0.071763,0.015151,0.01251
1-0066,pubchemPAH,NGTBCVSUOMFWNI-UHFFFAOYSA-N,c1ccc2c(c1)c1-c3c(-c1cc2)c1ccccc1cc3,C20H12,xtb2,252.316,12,20,0,-48.876123278869,-48.617135360149,0.000183954848,-48.671981498059,8.288402684337,8.104951673777,0.001377364012,7.694290592547,0.243856890156,-9.4701,-7.8147,1.655468129776,0.001,202.034361,-0.000 0.000 -0.000,0.03541196,0.00649595,0.005489044
1-0066,pubchemPAH,NGTBCVSUOMFWNI-UHFFFAOYSA-N,c1ccc2c(c1)c1-c3c(-c1cc2)c1ccccc1cc3,C20H12,r2scan,252.316,12,20,0,-769.128044583622,-768.8637412507,0.0001798704,-768.9173696206,6.516462610042,6.3276946523,0.0014780764,5.8870060718,0.2495405861,-4.6039,-2.746,1.8579,0.00026,261.98277,-0.00000 0.00000 -0.00010,0.035045,0.006438,0.005439
1-0066,pubchemPAH,NGTBCVSUOMFWNI-UHFFFAOYSA-N,c1ccc2c(c1)c1-c3c(-c1cc2)c1ccccc1cc3,C20H12,d4tzvp,252.316,12,20,0,-769.933773178137,-769.6694698452,0.0001798704,-769.7230982151,6.417199694397,6.2284317364,0.0014780764,5.7877431571,0.2495405861,-7.0574,-0.2413,6.8161,0.00024,250.7898,0.00000 0.00000 -0.00009,0.035045,0.006438,0.005439
1-0067,pubchemPAH,NUYMQZQMXDQUCC-UHFFFAOYSA-N,c1cccc2c1cc1-c3cccc4c3c3c1c2ccc3cc4,C22H12,xtb2,276.338,12,22,0,-53.24381702463,-52.970693696435,0.000185604865,-53.026031786826,9.069503687368,8.876638324093,0.001482120251,8.434744169944,0.257825549627,-10.1321,-7.6327,2.499425875835,0.263,222.284739,-0.093 -0.045 0.000,0.02180965,0.007492148,0.005576488
1-0067,pubchemPAH,NUYMQZQMXDQUCC-UHFFFAOYSA-N,c1cccc2c1cc1-c3cccc4c3c3c1c2ccc3cc4,C22H12,r2scan,276.338,12,22,0,-845.416620926237,-845.1380980826,0.0001838746,-845.1929203044,7.140606778121,6.9423402706,0.0015874846,6.4690316222,0.2633613075,-5.44,-2.6206,2.8194,0.3603,276.83783,-0.11184 -0.08709 0.00007,0.021649,0.007425,0.005529
1-0067,pubchemPAH,NUYMQZQMXDQUCC-UHFFFAOYSA-N,c1cccc2c1cc1-c3cccc4c3c3c1c2ccc3cc4,C22H12,d4tzvp,276.338,12,22,0,-846.300158354287,-846.0216355107,0.0001838746,-846.0764577325,7.037962954981,6.8396964473,0.0015874846,6.3663878001,0.2633613075,-7.944,-0.2456,7.6984,0.31884,267.45804,-0.08396 -0.09320 0.00008,0.021649,0.007425,0.005529
1-0068,pubchemPAH,NXWVOHDKFNASRM-UHFFFAOYSA-N,c1ccc2-c3c(-c2c1)ccc1c3cccc1,C16H10,xtb2,202.256,10,16,0,-39.284955184057,-39.073869920564,0.000165454955,-39.12320031529,6.657385602857,6.507674077244,0.001100175343,6.17965679782,0.198835572357,-9.679,-7.6121,2.066890803858,0.239,162.113804,0.094 0.003 0.000,0.04623858,0.012173,0.009636142
1-0068,pubchemPAH,NXWVOHDKFNASRM-UHFFFAOYSA-N,c1ccc2-c3c(-c2c1)ccc1c3cccc1,C16H10,r2scan,202.256,10,16,0,-615.5218345983,-615.3064873382,0.0001624275,-615.3549150963,5.233660345162,5.0796855774,0.0011813907,4.7274538501,0.2033808399,-4.8441,-2.5345,2.3096,0.37872,197.79361,0.14665 0.02633 0.00001,0.045871,0.012033,0.009533
1-0068,pubchemPAH,NXWVOHDKFNASRM-UHFFFAOYSA-N,c1ccc2-c3c(-c2c1)ccc1c3cccc1,C16H10,d4tzvp,202.256,10,16,0,-616.171077400304,-615.9557301402,0.0001624275,-616.0041578983,5.155806802376,5.0018320344,0.0011813907,4.6496003081,0.2033808399,-7.4144,0.0096,7.424,0.44775,192.22008,0.17118 0.04156 0.00001,0.045871,0.012033,0.009533
1-0069,pubchemPAH,OQDXASJSCOTNQS-UHFFFAOYSA-N,c1ccc2-c3c4c(-c2c1)c1ccccc1cc4ccc3,C20H12,xtb2,252.316,12,20,0,-48.948136186463,-48.688305957384,0.000183141983,-48.742909739669,8.360415591931,8.176122271012,0.001378176877,7.765218834157,0.24507237587,-9.8695,-8.0039,1.865639545704,0.531,205.05113,0.150 0.146 0.000,0.01772499,0.01135468,0.006921043
1-0069,pubchemPAH,OQDXASJSCOTNQS-UHFFFAOYSA-N,c1ccc2-c3c4c(-c2c1)c1ccccc1cc4ccc3,C20H12,r2scan,252.316,12,20,0,-769.206919598881,-768.9415115584,0.0001787444,-768.9948042151,6.595337625301,6.40546496,0.0014792024,5.9644406663,0.25103186,-5.1322,-2.982,2.1502,0.64063,251.99024,0.18290 0.17341 0.00001,0.017558,0.011267,0.006863
1-0069,pubchemPAH,OQDXASJSCOTNQS-UHFFFAOYSA-N,c1ccc2-c3c4c(-c2c1)c1ccccc1cc4ccc3,C20H12,d4tzvp,252.316,12,20,0,-770.014095437801,-769.7486873973,0.0001787444,-769.8019800540001,6.497521954061,6.3076492885,0.0014792024,5.866624996,0.25103186,-7.578,-0.6945,6.8835,0.56526,246.23981,0.14513 0.16850 0.00001,0.017558,0.011267,0.006863
1-0070,pubchemPAH,OVYNMPKAJJJORA-UHFFFAOYSA-N,c1ccc2-c3c4c(-c2c1)cc1ccccc1c4c1c(c3)cccc1,C24H14,xtb2,302.376,14,24,0,-58.549684981357,-58.241330861844,0.000200341868,-58.301062789845,10.001813373493,9.78315933242,0.001656665554,9.289224496291,0.290875066482,-10.055,-7.5677,2.48726003259,0.28,245.02263,0.110 0.000 -0.000,0.01114151,0.007726733,0.004603434
1-0070,pubchemPAH,OVYNMPKAJJJORA-UHFFFAOYSA-N,c1ccc2-c3c4c(-c2c1)cc1ccccc1c4c1c(c3)cccc1,C24H14,r2scan,302.376,14,24,0,-922.823509137572,-922.5084271598,0.0001942542,-922.5663440407,7.88851944355,7.6631357238,0.0017778212,7.1330781893,0.2981241639,-5.3507,-2.4996,2.8511,0.15669,311.49602,0.06165 0.00000 -0.00000,0.011001,0.007667,0.004551
1-0070,pubchemPAH,OVYNMPKAJJJORA-UHFFFAOYSA-N,c1ccc2-c3c4c(-c2c1)cc1ccccc1c4c1c(c3)cccc1,C24H14,d4tzvp,302.376,14,24,0,-923.792514726171,-923.4774327484,0.0001942542,-923.5353496293,7.774638356619,7.5492546366,0.0017778212,7.0191971035,0.2981241639,-7.8959,-0.1614,7.7345,0.0207,298.81859,0.00814 0.00000 -0.00001,0.011001,0.007667,0.004551
1-0071,pubchemPAH,PDZCSPQDVSFJJG-UHFFFAOYSA-N,c1cc2c(cc1)cc1-c3c(-c1c2)c1ccccc1c1c3cccc1,C24H14,xtb2,302.376,14,24,0,-58.483499043247,-58.176023411362,0.000205350079,-58.237248537499,9.935627435383,9.717851881938,0.001651657343,9.225410243945,0.289422935654,-9.6829,-7.682,2.000916461384,0.784,242.130899,-0.309 0.000 -0.000,0.01563984,0.005108277,0.003850597
1-0071,pubchemPAH,PDZCSPQDVSFJJG-UHFFFAOYSA-N,c1cc2c(cc1)cc1-c3c(-c1c2)c1ccccc1c1c3cccc1,C24H14,r2scan,302.376,14,24,0,-922.752604604727,-922.4392431003,0.0002000278,-922.4988813976,7.817614910705,7.5939516643,0.0017720476,7.0656155462,0.2956495868,-4.9016,-2.606,2.2956,1.27218,328.5785,-0.50051 0.00000 0.00000,0.01553,0.005056,0.003814
1-0071,pubchemPAH,PDZCSPQDVSFJJG-UHFFFAOYSA-N,c1cc2c(cc1)cc1-c3c(-c1c2)c1ccccc1c1c3cccc1,C24H14,d4tzvp,302.376,14,24,0,-923.719864971941,-923.4065034675,0.0002000278,-923.4661417648,7.701988602389,7.4783253557,0.0017720476,6.949989239,0.2956495868,-7.339,-0.1849,7.1541,1.44729,309.67318,-0.56940 0.00001 0.00002,0.01553,0.005056,0.003814
1-0072,pubchemPAH,PKIFBGYEEVFWTJ-UHFFFAOYSA-N,c1ccc2c(c1)cc1c(c2)cc2c(c1)c1cc3ccccc3cc1cc2,C26H16,xtb2,328.414,16,26,0,-63.84740697319,-63.504680539573,0.000216743013,-63.569302468802,10.925977094724,10.682392853067,0.001829546715,10.136913498576,0.323208381781,-9.6641,-7.8007,1.863341890121,0.024,267.756889,0.004 0.009 0.000,0.02015252,0.003006774,0.002616404
1-0072,pubchemPAH,PKIFBGYEEVFWTJ-UHFFFAOYSA-N,c1ccc2c(c1)cc1c(c2)cc2c(c1)c1cc3ccccc3cc1cc2,C26H16,r2scan,328.414,16,26,0,-1000.224430649678,-999.8743897038,0.0002105317,-999.9371597383,8.63046540975,8.3795646438,0.0019622599,7.7945167177,0.3310727868,-4.8546,-2.7919,2.0627,0.10219,393.28744,0.00514 0.03987 -0.00000,0.019986,0.002982,0.002595
1-0072,pubchemPAH,PKIFBGYEEVFWTJ-UHFFFAOYSA-N,c1ccc2c(c1)cc1c(c2)cc2c(c1)c1cc3ccccc3cc1cc2,C26H16,d4tzvp,328.414,16,26,0,-1001.272615913413,-1000.9225749675,0.0002105317,-1000.985345002,8.499058573615,8.2481578073,0.0019622599,7.6631098828,0.3310727868,-7.2548,-0.4831,6.7717,0.08102,365.51193,0.00145 0.03184 -0.00000,0.019986,0.002982,0.002595
1-0073,pubchemPAH,PKXXWDSLPQQAPX-UHFFFAOYSA-N,c1ccc2c(c1)c1c(cc2)c2cccc3c2c2c1cccc2cc3,C24H14,xtb2,302.376,14,24,0,-58.564469751623,-58.255806669067,0.000199340708,-58.315240101201,10.016598143759,9.797635139643,0.001657666714,9.303401807647,0.291449536299,-9.807,-7.5167,2.290355344715,0.023,245.09589,0.007 0.005 0.004,0.01518713,0.007006257,0.004919404
1-0073,pubchemPAH,PKXXWDSLPQQAPX-UHFFFAOYSA-N,c1ccc2c(c1)c1c(cc2)c2cccc3c2c2c1cccc2cc3,C24H14,r2scan,302.376,14,24,0,-922.840254078704,-922.5245080032,0.0001932939,-922.582138576,7.905264384682,7.6792165672,0.0017787815,7.1488727246,0.2991435551,-5.0893,-2.3935,2.6958,0.08197,299.85515,0.02779 0.01292 -0.01003,0.015076,0.00691,0.004849
1-0073,pubchemPAH,PKXXWDSLPQQAPX-UHFFFAOYSA-N,c1ccc2c(c1)c1c(cc2)c2cccc3c2c2c1cccc2cc3,C24H14,d4tzvp,302.376,14,24,0,-923.807812271465,-923.492066196,0.0001932939,-923.5496967688,7.789935901913,7.5638880842,0.0017787815,7.033544243,0.2991435551,-7.5004,-0.0764,7.424,0.05598,290.64462,0.01487 0.01492 -0.00644,0.015076,0.00691,0.004849
1-0074,pubchemPAH,PLKNNIMJRPBOSW-UHFFFAOYSA-N,c1c2c(cc3c(c2)cccc3)cc2c1cc1ccc3c(c1c2)cccc3,C26H16,xtb2,328.414,16,26,0,-63.841928313711,-63.499430710386,0.000216723742,-63.564046893949,10.920498435245,10.67714302388,0.001829565986,10.131657923723,0.322955793167,-9.4302,-8.0743,1.355863577078,0.024,267.755784,0.005 0.008 0.000,0.02735657,0.002700904,0.002458206
1-0074,pubchemPAH,PLKNNIMJRPBOSW-UHFFFAOYSA-N,c1c2c(cc3c(c2)cccc3)cc2c1cc1ccc3c(c1c2)cccc3,C26H16,r2scan,328.414,16,26,0,-1000.217414700118,-999.8674971338,0.0002103536,-999.9302140552,8.62344946019,8.3726720738,0.001962438,7.7875710346,0.330956008,-4.5506,-3.1135,1.4371,0.09517,400.92642,0.01459 0.03448 0.00000,0.027044,0.002682,0.00244
1-0074,pubchemPAH,PLKNNIMJRPBOSW-UHFFFAOYSA-N,c1c2c(cc3c(c2)cccc3)cc2c1cc1ccc3c(c1c2)cccc3,C26H16,d4tzvp,328.414,16,26,0,-1001.263065478506,-1000.9131479122,0.0002103536,-1000.9758648336,8.489508138708,8.238730752,0.001962438,7.6536297144,0.330956008,-6.8356,-0.9176,5.918,0.06507,376.41307,0.00536 0.02503 0.00000,0.027044,0.002682,0.00244
1-0075,pubchemPAH,PZYUECVDXQTUBV-UHFFFAOYSA-N,c1ccc2c(c1)cc1c3c2-c2ccccc2-c3c2c(c1)cccc2,C24H14,xtb2,302.376,14,24,0,-58.535860318266,-58.228188958648,0.00020270352,-58.288625013072,9.987988710402,9.770017429224,0.001654303902,9.276786719518,0.289864640731,-9.6669,-8.2727,1.394201071882,0.748,245.031194,0.000 -0.294 -0.000,0.01290171,0.007000214,0.00453799
1-0075,pubchemPAH,PZYUECVDXQTUBV-UHFFFAOYSA-N,c1ccc2c(c1)cc1c3c2-c2ccccc2-c3c2c(c1)cccc2,C24H14,r2scan,302.376,14,24,0,-922.808498969949,-922.4942430323,0.0001989408,-922.5535572196,7.873509275927,7.6489515963,0.0017731346,7.1202913682,0.2969113165,-4.8802,-3.3067,1.5735,0.97528,325.03929,0.00001 -0.38370 -0.00000,0.012752,0.006964,0.004504
1-0075,pubchemPAH,PZYUECVDXQTUBV-UHFFFAOYSA-N,c1ccc2c(c1)cc1c3c2-c2ccccc2-c3c2c(c1)cccc2,C24H14,d4tzvp,302.376,14,24,0,-923.771048793216,-923.4567928556,0.0001989408,-923.5161070429,7.753172423664,7.5286147438,0.0017731346,6.9999545171,0.2969113165,-7.1757,-1.162,6.0137,0.96866,316.76309,0.00001 -0.38109 0.00000,0.012752,0.006964,0.004504
1-0076,pubchemPAH,QGSZQJATRLETJZ-UHFFFAOYSA-N,c1ccc2-c3c(-c2c1)cc1c(c3)cccc1,C16H10,xtb2,202.256,10,16,0,-39.294233839224,-39.083035037312,0.000162698488,-39.13154359143,6.666664258024,6.516839193992,0.00110293181,6.18800007396,0.198998733137,-10.0475,-7.1536,2.893905919878,0.263,162.404846,-0.104 0.000 -0.000,0.06728483,0.009911693,0.008639076
1-0076,pubchemPAH,QGSZQJATRLETJZ-UHFFFAOYSA-N,c1ccc2-c3c(-c2c1)cc1c(c3)cccc1,C16H10,r2scan,202.256,10,16,0,-615.531924242225,-615.3165069778,0.0001594824,-615.3640566446,5.243749989087,5.089705217,0.0011843358,4.7365953984,0.2035331321,-5.2831,-2.0948,3.1883,0.4546,206.32788,-0.17885 0.00000 -0.00001,0.066837,0.009788,0.008538
1-0076,pubchemPAH,QGSZQJATRLETJZ-UHFFFAOYSA-N,c1ccc2-c3c(-c2c1)cc1c(c3)cccc1,C16H10,d4tzvp,202.256,10,16,0,-616.181752612819,-615.9663353484,0.0001594824,-616.0138850152,5.166482014891,5.0124372426,0.0011843358,4.659327425,0.2035331321,-7.9121,0.3569,8.269,0.50662,198.80707,-0.19931 -0.00000 -0.00002,0.066837,0.009788,0.008538
1-0077,pubchemPAH,QJKAASQRFWOPEJ-UHFFFAOYSA-N,c1ccc2c(c1)c1c2ccc2c1c1c2cccc1,C18H10,xtb2,226.278,10,18,0,-43.512547987034,-43.289081666845,0.000173326118,-43.340758848986,7.298385663104,7.141014137555,0.001198710436,6.783618620146,0.209947672558,-9.9161,-7.3674,2.54869619974,0.11,177.37202,0.000 0.043 -0.000,0.03809089,0.008493315,0.006944799
1-0077,pubchemPAH,QJKAASQRFWOPEJ-UHFFFAOYSA-N,c1ccc2c(c1)c1c2ccc2c1c1c2cccc1,C18H10,r2scan,226.278,10,18,0,-691.652435575685,-691.4249605659,0.0001698808,-691.47561054,5.699829148011,5.5384475915,0.0012873498,5.1546241604,0.2142270498,-5.075,-2.3732,2.7018,0.17488,235.11456,0.00003 0.06880 0.00000,0.037611,0.008398,0.006865