id,subset,key,smiles,formula,level,mwt,nH,nC,nCl,E,H,S,G,dE,dH,dS,dG,zpe,homo,lumo,gap,Mu,alpha,tMu,rotA,rotB,rotC
2-0210,pubchemPCH,LOEASVVSGMJZJF-UHFFFAOYSA-N,Clc1c(Cl)c(Cl)c2c(c1Cl)c1c(Cl)cccc1cc2,C14H5Cl5,xtb2,350.459,5,14,5,-55.30052344674,-55.142897055209,0.000207234044,-55.204683885382,5.814334753145,5.713361042734,0.001036511978,5.404324995852,0.140148208223,-10.7458,-8.114,2.63184554864,4.04,209.741746,-1.328 0.865 0.119,0.01273091,0.006833254,0.004801267
2-0210,pubchemPCH,LOEASVVSGMJZJF-UHFFFAOYSA-N,Clc1c(Cl)c(Cl)c2c(c1Cl)c1c(Cl)cccc1cc2,C14H5Cl5,r2scan,350.459,5,14,5,-2837.274268576542,-2837.1127645546,0.0001988568,-2837.1720536986,4.5669184841,4.4620659934,0.001116108,4.1292982433,0.1447775294,-5.8803,-2.7811,3.0992,3.73542,240.06733,-1.21837 0.81295 0.12001,0.012502,0.006706,0.004762
2-0210,pubchemPCH,LOEASVVSGMJZJF-UHFFFAOYSA-N,Clc1c(Cl)c(Cl)c2c(c1Cl)c1c(Cl)cccc1cc2,C14H5Cl5,d4tzvp,350.459,5,14,5,-2838.030525054791,-2837.8690210329,0.0001988568,-2837.9283101769,4.524496561229,4.4196440707,0.001116108,4.0868763211,0.1447775294,-8.5765,-0.33,8.2465,3.9126,230.63699,-1.27101 0.85967 0.12228,0.012502,0.006706,0.004762
2-0211,pubchemPCH,LPQOLIQZIGAFSO-UHFFFAOYSA-N,c1c2c(Cl)ccc(c2cc2c1c(Cl)ccc2Cl)Cl,C14H6Cl4,xtb2,316.014,6,14,4,-51.270335469621,-51.104243023191,0.00019391185,-51.162057841369,5.873189147051,5.763749381741,0.001032929776,5.455781368525,0.149911306173,-10.4617,-8.4551,2.006576956014,0.0,196.799755,0.000 0.000 0.000,0.01065046,0.008519658,0.004733319
2-0211,pubchemPCH,LPQOLIQZIGAFSO-UHFFFAOYSA-N,c1c2c(Cl)ccc(c2cc2c1c(Cl)ccc2Cl)Cl,C14H6Cl4,r2scan,316.014,6,14,4,-2377.722682130338,-2377.5527674837,0.0001879804,-2377.608813838,4.632053640664,4.5187905253,0.0011100726,4.1878222512,0.154217218,-5.5773,-3.2566,2.3207,0.00019,230.2506,-0.00000 0.00007 -0.00000,0.010473,0.008418,0.004667
2-0211,pubchemPCH,LPQOLIQZIGAFSO-UHFFFAOYSA-N,c1c2c(Cl)ccc(c2cc2c1c(Cl)ccc2Cl)Cl,C14H6Cl4,d4tzvp,316.014,6,14,4,-2378.438366559047,-2378.2684519123995,0.0001879804,-2378.3244982667,4.579614027725,4.4663509124,0.0011100726,4.1353826389,0.154217218,-8.1352,-0.8809,7.2543,6E-05,223.5965,-0.00002 -0.00001 0.00001,0.010473,0.008418,0.004667
2-0212,pubchemPCH,LQKFWCICRKTISH-UHFFFAOYSA-N,c1ccc2c(c1)ccc1c2c2c(Cl)cccc2cc1,C18H11Cl,xtb2,262.739,11,18,1,-48.708110110226,-48.469302616688,0.0001842068,-48.524223874112,7.617939887399,7.449948245261,0.0012876102,7.066047263284,0.22394413998,-10.1649,-7.4288,2.736076961043,1.566,199.948217,-0.223 -0.460 0.344,0.01933231,0.01150475,0.007897009
2-0212,pubchemPCH,LQKFWCICRKTISH-UHFFFAOYSA-N,c1ccc2c(c1)ccc1c2c2c(Cl)cccc2cc1,C18H11Cl,r2scan,262.739,11,18,1,-1152.579113966761,-1152.3346738437,0.0001786263,-1152.3879312696,6.015242564949,5.8416168561,0.0013828199,5.4293289857,0.2301560893,-5.4281,-2.347,3.0811,1.47056,230.57852,-0.27294 -0.39054 0.32818,0.018958,0.011202,0.007752
2-0212,pubchemPCH,LQKFWCICRKTISH-UHFFFAOYSA-N,c1ccc2c(c1)ccc1c2c2c(Cl)cccc2cc1,C18H11Cl,d4tzvp,262.739,11,18,1,-1153.349744936761,-1153.1053048137005,0.0001786263,-1153.1585622396,5.931517406347,5.7578916973,0.0013828199,5.345603828,0.2301560893,-8.0317,0.0874,8.1191,1.55854,224.58606,-0.31874 -0.40326 0.33430,0.018958,0.011202,0.007752
2-0213,pubchemPCH,LTVFQJXESGOJEA-UHFFFAOYSA-N,Clc1ccc2c(c1)c1ccccc1c1c2cccc1,C18H11Cl,xtb2,262.739,11,18,1,-48.71990520685,-48.480410732839,0.00018967603,-48.536962641087,7.629734984023,7.461056361412,0.00128214097,7.078786030259,0.224156210732,-10.4276,-7.1935,3.234096027339,2.232,199.878745,0.872 -0.100 -0.000,0.01731496,0.009127882,0.005977002
2-0213,pubchemPCH,LTVFQJXESGOJEA-UHFFFAOYSA-N,Clc1ccc2c(c1)c1ccccc1c1c2cccc1,C18H11Cl,r2scan,262.739,11,18,1,-1152.597699698505,-1152.3537077739,0.000185741,-1152.4090864515,6.033828296693,5.8606507863,0.0013757052,5.4504841676,0.2288692507,-5.736,-2.0357,3.7003,2.08864,231.1081,0.81546 -0.10125 -0.00002,0.01717,0.00904,0.005922
2-0213,pubchemPCH,LTVFQJXESGOJEA-UHFFFAOYSA-N,Clc1ccc2c(c1)c1ccccc1c1c2cccc1,C18H11Cl,d4tzvp,262.739,11,18,1,-1153.372595354128,-1153.1286034295,0.000185741,-1153.1839821070998,5.954367823714,5.7811903131,0.0013757052,5.3710236955,0.2288692507,-8.3906,0.4757,8.8663,2.10812,224.96505,0.82226 -0.10847 -0.00001,0.01717,0.00904,0.005922
2-0214,pubchemPCH,LTYRYSKREVLISY-UHFFFAOYSA-N,c1ccc2c(c1)ccc1c2c2cc(Cl)ccc2c2c1cccc2,C22H13Cl,xtb2,312.799,13,22,1,-58.30976882766,-58.022278349855,0.000206590816,-58.083873401686,9.259447591501,9.056936135376,0.001560914746,8.591549402816,0.269639443777,-10.1562,-7.4981,2.658073033144,2.224,239.836708,0.274 -0.816 -0.159,0.009188667,0.008168254,0.004494201
2-0214,pubchemPCH,LTYRYSKREVLISY-UHFFFAOYSA-N,c1ccc2c(c1)ccc1c2c2cc(Cl)ccc2c2c1cccc2,C22H13Cl,r2scan,312.799,13,22,1,-1306.199958592419,-1305.9057805813,0.0001993724,-1305.965223465,7.312679470165,7.1034787561,0.0016762024,6.6037188785,0.2769523398,-5.4383,-2.3707,3.0676,2.10329,289.55567,0.25984 -0.76676 -0.17114,0.009039,0.008105,0.004422
2-0214,pubchemPCH,LTYRYSKREVLISY-UHFFFAOYSA-N,c1ccc2c(c1)ccc1c2c2cc(Cl)ccc2c2c1cccc2,C22H13Cl,d4tzvp,312.799,13,22,1,-1307.132070501923,-1306.8378924908,0.0001993724,-1306.8973353745,7.212540085697,7.0033393714,0.0016762024,6.5035794951,0.2769523398,-7.9769,0.0553,8.0322,2.13184,279.37626,0.27644 -0.77335 -0.17013,0.009039,0.008105,0.004422
2-0215,pubchemPCH,LVKLJLYFIFXBKM-UHFFFAOYSA-N,c1ccc2c(c1)ccc1c2cc(Cl)c2c1cccc2,C18H11Cl,xtb2,262.739,11,18,1,-48.719394940775,-48.48013179234,0.000187435452,-48.536015672484,7.629224717948,7.460777420913,0.001284381548,7.077839061656,0.224095494868,-10.1732,-7.5324,2.640810127577,1.964,199.907806,-0.319 -0.704 0.003,0.02227108,0.008127466,0.005954509
2-0215,pubchemPCH,LVKLJLYFIFXBKM-UHFFFAOYSA-N,c1ccc2c(c1)ccc1c2cc(Cl)c2c1cccc2,C18H11Cl,r2scan,262.739,11,18,1,-1152.597510389188,-1152.3530304286,0.0001826179,-1152.4074779494,6.033638987376,5.859973441,0.0013788283,5.4488756655,0.2297571819,-5.4379,-2.3158,3.1221,1.81093,238.67564,-0.27439 -0.65750 0.00083,0.021935,0.008076,0.005902
2-0215,pubchemPCH,LVKLJLYFIFXBKM-UHFFFAOYSA-N,c1ccc2c(c1)ccc1c2cc(Cl)c2c1cccc2,C18H11Cl,d4tzvp,262.739,11,18,1,-1153.369739068578,-1153.125259108,0.0001826179,-1153.1797066288,5.951511538164,5.7778459916,0.0013788283,5.3667482172,0.2297571819,-8.0161,0.1283,8.1444,1.84844,231.9672,-0.29151 -0.66623 0.00080,0.021935,0.008076,0.005902
2-0216,pubchemPCH,LVMDUJFOPUQDLH-UHFFFAOYSA-N,c1c(Cl)c2c(Cl)cc3c4c2c2c1ccc1c2c4c(cc1)cc3,C20H8Cl2,xtb2,319.19,8,20,2,-56.01272182349,-55.791239419164,0.000190522101,-55.848043583615,8.03388201478,7.883215461854,0.001321729501,7.489141810033,0.205710371177,-10.5251,-7.8792,2.645928438765,3.591,224.060747,1.381 -0.000 0.297,0.01446069,0.007778166,0.005204565
2-0216,pubchemPCH,LVMDUJFOPUQDLH-UHFFFAOYSA-N,c1c(Cl)c2c(Cl)cc3c4c2c2c1ccc1c2c4c(cc1)cc3,C20H8Cl2,r2scan,319.19,8,20,2,-1687.139769626113,-1686.9130165955,0.0001851269,-1686.9682121783,6.289287818367,6.1333492019,0.0014193397,5.7101729283,0.211625458,-5.8788,-2.7797,3.0991,3.61836,262.52371,1.29845 -0.00007 0.58353,0.014233,0.00771,0.00515
2-0216,pubchemPCH,LVMDUJFOPUQDLH-UHFFFAOYSA-N,c1c(Cl)c2c(Cl)cc3c4c2c2c1ccc1c2c4c(cc1)cc3,C20H8Cl2,d4tzvp,319.19,8,20,2,-1688.005892149068,-1687.7791391185,0.0001851269,-1687.8343347013,6.204825795528,6.0488871791,0.0014193397,5.6257109063,0.211625458,-8.6037,-0.4124,8.1913,3.7316,253.37836,1.35773 -0.00007 0.55845,0.014233,0.00771,0.00515
2-0217,pubchemPCH,LVTBZWDVFFKFMF-UHFFFAOYSA-N,c1c(Cl)c2cc(Cl)c3c4c2c(c1Cl)c(Cl)cc4c(cc3Cl)Cl,C16H4Cl6,xtb2,408.926,4,16,6,-63.668734025529,-63.505875432908,0.000221094325,-63.571794705861,6.506910218179,6.405425363438,0.001145962349,6.063756688275,0.143181904918,-10.5771,-8.659,1.918166229465,0.0,239.311512,-0.000 0.000 0.000,0.007124157,0.005184315,0.003000687
2-0217,pubchemPCH,LVTBZWDVFFKFMF-UHFFFAOYSA-N,c1c(Cl)c2cc(Cl)c3c4c2c(c1Cl)c(Cl)cc4c(cc3Cl)Cl,C16H4Cl6,r2scan,408.926,4,16,6,-3373.083483514213,-3372.9177381717,0.0002195617,-3372.9832005073,5.094979644467,4.9906067941,0.0012257273,4.6251560501,0.1462090679,-5.6895,-3.3119,2.3776,0.07821,296.80843,0.00013 -0.00038 0.03077,0.006971,0.005131,0.003
2-0217,pubchemPCH,LVTBZWDVFFKFMF-UHFFFAOYSA-N,c1c(Cl)c2cc(Cl)c3c4c2c(c1Cl)c(Cl)cc4c(cc3Cl)Cl,C16H4Cl6,d4tzvp,408.926,4,16,6,-3373.943961973685,-3373.7782166312,0.0002195617,-3373.8436789668,5.045035602317,4.9406627522,0.0012257273,4.5752120086,0.1462090679,-8.1429,-1.1098,7.0331,0.07215,283.70771,0.00047 0.00011 0.02838,0.006971,0.005131,0.003
2-0218,pubchemPCH,LZRRHMCCXNOPQT-UHFFFAOYSA-N,c1ccc2c(c1)cc1c(c2Cl)c2ccccc2c2c1cccc2,C22H13Cl,xtb2,312.799,13,22,1,-58.304913477491,-58.017534019658,0.000206810442,-58.079194552817,9.254592241332,9.052191805179,0.00156069512,8.586870553947,0.269438302682,-10.0529,-7.5938,2.459160712304,1.664,239.909258,-0.129 0.602 0.222,0.01270136,0.006997557,0.004659499
2-0218,pubchemPCH,LZRRHMCCXNOPQT-UHFFFAOYSA-N,c1ccc2c(c1)cc1c(c2Cl)c2ccccc2c2c1cccc2,C22H13Cl,r2scan,312.799,13,22,1,-1306.191225700536,-1305.897300961,0.0001999387,-1305.9569126767,7.303946578282,7.0949991358,0.0016756361,6.5954080902,0.276609078,-5.3108,-2.5516,2.7592,1.5044,293.0123,-0.09812 0.53107 0.24216,0.012539,0.0069,0.004612
2-0218,pubchemPCH,LZRRHMCCXNOPQT-UHFFFAOYSA-N,c1ccc2c(c1)cc1c(c2Cl)c2ccccc2c2c1cccc2,C22H13Cl,d4tzvp,312.799,13,22,1,-1307.124561770743,-1306.8306370312,0.0001999387,-1306.8902487469002,7.205031354517,6.9960839118,0.0016756361,6.4964928675,0.276609078,-7.8949,-0.1428,7.7521,1.54583,282.40468,-0.08400 0.55020 0.24512,0.012539,0.0069,0.004612
2-0219,pubchemPCH,MCXAMLQVFSZZEJ-UHFFFAOYSA-N,c1c(Cl)c(Cl)c2c(c1)c1c(Cl)cccc1cc2,C14H7Cl3,xtb2,281.569,7,14,3,-47.217272362353,-47.042674218074,0.000187008255,-47.098430729228,5.909168410808,5.791222947649,0.001022928975,5.48623667307,0.15977735889,-10.6801,-7.7594,2.920642422888,3.193,184.503858,-1.197 0.327 -0.198,0.02268598,0.007576995,0.005741234
2-0219,pubchemPCH,MCXAMLQVFSZZEJ-UHFFFAOYSA-N,c1c(Cl)c(Cl)c2c(c1)c1c(Cl)cccc1cc2,C14H7Cl3,r2scan,281.569,7,14,3,-1918.13551931418,-1917.9568433904,0.0001814296,-1918.010936613,4.661612427274,4.5395880348,0.0010997116,4.2117088947,0.1643690485,-5.8977,-2.4813,3.4164,3.0653,211.1442,-1.14333 0.31557 -0.21803,0.022289,0.007466,0.005661
2-0219,pubchemPCH,MCXAMLQVFSZZEJ-UHFFFAOYSA-N,c1c(Cl)c(Cl)c2c(c1)c1c(Cl)cccc1cc2,C14H7Cl3,d4tzvp,281.569,7,14,3,-1918.819682406503,-1918.6410064827,0.0001814296,-1918.6950997053,4.608205837421,4.4861814449,0.0010997116,4.1583023055,0.1643690485,-8.5759,0.0256,8.6015,3.1728,204.85177,-1.18632 0.31761 -0.22337,0.022289,0.007466,0.005661
2-0220,pubchemPCH,MGDFBMDVXFZGSJ-UHFFFAOYSA-N,c1ccc2c(c1)cc1c(c2)c(Cl)c(cc1)Cl,C14H8Cl2,xtb2,247.124,8,14,2,-43.166438149034,-42.984021037606,0.00017698106,-43.036787940567,5.947376568514,5.821612138206,0.001016051774,5.518676301095,0.168857432227,-10.1975,-8.0344,2.163186770903,3.2,172.302826,-1.031 -0.723 0.000,0.03697358,0.008211602,0.006719289
2-0220,pubchemPCH,MGDFBMDVXFZGSJ-UHFFFAOYSA-N,c1ccc2c(c1)cc1c(c2)c(Cl)c(cc1)Cl,C14H8Cl2,r2scan,247.124,8,14,2,-1458.558315483192,-1458.3717931705,0.0001720548,-1458.4230912989,4.701130199054,4.5712594177,0.0010921746,4.2456274491,0.1734157927,-5.3362,-2.8382,2.498,2.94189,205.19589,-0.93391 -0.68367 -0.00000,0.036455,0.008131,0.006648
2-0220,pubchemPCH,MGDFBMDVXFZGSJ-UHFFFAOYSA-N,c1ccc2c(c1)cc1c(c2)c(Cl)c(cc1)Cl,C14H8Cl2,d4tzvp,247.124,8,14,2,-1459.203510226719,-1459.016987914,0.0001720548,-1459.0682860424,4.639309619877,4.5094388384,0.0010921746,4.1838068706,0.1734157927,-7.8938,-0.4342,7.4596,2.99517,199.98161,-0.94630 -0.70219 -0.00001,0.036455,0.008131,0.006648
2-0221,pubchemPCH,MIUFDABDSMZKCD-UHFFFAOYSA-N,c1cc(Cl)c2c(c1Cl)c1cccc(c1cc2)Cl,C14H7Cl3,xtb2,281.569,7,14,3,-47.218311944858,-47.043673313272,0.000187247635,-47.099501195768,5.910207993313,5.792222042847,0.001022689595,5.48730713961,0.159849157576,-10.6086,-7.7898,2.818875411109,1.236,184.402148,0.130 -0.446 0.142,0.01646326,0.008864641,0.005844856
2-0221,pubchemPCH,MIUFDABDSMZKCD-UHFFFAOYSA-N,c1cc(Cl)c2c(c1Cl)c1cccc(c1cc2)Cl,C14H7Cl3,r2scan,281.569,7,14,3,-1918.136656736109,-1917.9578921606,0.0001815616,-1918.0120247535,4.662749849203,4.540636805,0.0010995796,4.2127970352,0.1644631421,-5.8334,-2.543,3.2904,1.29206,209.30564,0.14654 -0.45599 0.17028,0.01622,0.008712,0.00576
2-0221,pubchemPCH,MIUFDABDSMZKCD-UHFFFAOYSA-N,c1cc(Cl)c2c(c1Cl)c1cccc(c1cc2)Cl,C14H7Cl3,d4tzvp,281.569,7,14,3,-1918.820304506771,-1918.6415399313005,0.0001815616,-1918.6956725242003,4.608827937689,4.4867148935,0.0010995796,4.1588751244,0.1644631421,-8.509,-0.0537,8.4553,1.35979,203.74939,0.17509 -0.47504 0.17284,0.01622,0.008712,0.00576
2-0222,pubchemPCH,MJQFDQNKJAQLBY-UHFFFAOYSA-N,c1c2ccc3c(c2cc2-c4c5c(-c12)cccc5ccc4)ccc(c3)Cl,C24H13Cl,xtb2,336.821,13,24,1,-62.605898768774,-62.305972476891,0.000213301325,-62.369568266865,9.968984789885,9.758758576442,0.001660610493,9.263647556625,0.281047928638,-10.1942,-7.8391,2.35503838655,2.85,257.13602,-1.103 -0.198 0.000,0.02068977,0.003077046,0.002678666
2-0222,pubchemPCH,MJQFDQNKJAQLBY-UHFFFAOYSA-N,c1c2ccc3c(c2cc2-c4c5c(-c12)cccc5ccc4)ccc(c3)Cl,C24H13Cl,r2scan,336.821,13,24,1,-1382.410187440992,-1382.1042127239,0.0002078525,-1382.1661839342,7.858476144202,7.6421996851,0.0017811347,7.1111542143,0.2875368915,-5.4173,-2.7649,2.6524,2.7408,344.27309,-1.06578 -0.16383 0.00016,0.020515,0.003048,0.002654
2-0222,pubchemPCH,MJQFDQNKJAQLBY-UHFFFAOYSA-N,c1c2ccc3c(c2cc2-c4c5c(-c12)cccc5ccc4)ccc(c3)Cl,C24H13Cl,d4tzvp,336.821,13,24,1,-1383.413213433434,-1383.1072387163,0.0002078525,-1383.1692099266,7.748061101642,7.5317846423,0.0017811347,7.0007391728,0.2875368915,-7.9421,-0.4209,7.5212,2.6561,323.86124,-1.02864 -0.18398 0.00017,0.020515,0.003048,0.002654
2-0223,pubchemPCH,MJTMMSTTZWUFIS-UHFFFAOYSA-N,Clc1c(Cl)c(Cl)c2c(c1Cl)cc1c(c2Cl)c(Cl)c(cc1)Cl,C14H3Cl7,xtb2,419.349,3,14,7,-63.38882727674,-63.247867436632,0.000228023433,-63.315852623303,5.724553841095,5.640246682107,0.001049531381,5.327328900401,0.120787365553,-10.6379,-8.8755,1.762375065913,2.684,234.84611,-0.410 -0.973 -0.016,0.0112397,0.003629893,0.002768908
2-0223,pubchemPCH,MJTMMSTTZWUFIS-UHFFFAOYSA-N,Clc1c(Cl)c(Cl)c2c(c1Cl)cc1c(c2Cl)c(Cl)c(cc1)Cl,C14H3Cl7,r2scan,419.349,3,14,7,-3756.415919099088,-3756.2716096516,0.0002187875,-3756.3368411372,4.47512580111,4.3874678848,0.0011300009,4.0505579449,0.1249200844,-5.6773,-3.5975,2.0798,2.75376,286.67541,-0.31363 -1.03700 -0.00071,0.011042,0.003598,0.002767
2-0223,pubchemPCH,MJTMMSTTZWUFIS-UHFFFAOYSA-N,Clc1c(Cl)c(Cl)c2c(c1Cl)cc1c(c2Cl)c(Cl)c(cc1)Cl,C14H3Cl7,d4tzvp,419.349,3,14,7,-3757.241074181041,-3757.0967647335,0.0002187875,-3757.1619962191,4.440493762999,4.3528358469,0.0011300009,4.0159259073,0.1249200844,-8.2496,-1.304,6.9456,2.96245,272.49098,-0.33083 -1.11752 -0.00896,0.011042,0.003598,0.002767
2-0224,pubchemPCH,MKANLQAUBDOTBG-UHFFFAOYSA-N,Clc1cc2c(c(c1)Cl)c(Cl)c1c(c2)cc2c(c1)c(Cl)ccc2,C18H8Cl4,xtb2,366.074,8,18,4,-60.852613176738,-60.638828199869,0.000217889121,-60.703791841171,7.495315840836,7.352346715367,0.001304641067,6.963367980285,0.194692746656,-10.1384,-8.6346,1.503795459197,3.822,236.854158,0.814 1.264 -0.000,0.01437128,0.003598745,0.002878047
2-0224,pubchemPCH,MKANLQAUBDOTBG-UHFFFAOYSA-N,Clc1cc2c(c(c1)Cl)c(Cl)c1c(c2)cc2c(c1)c(Cl)ccc2,C18H8Cl4,r2scan,366.074,8,18,4,-2531.309819191528,-2531.0914285698,0.0002122299,-2531.1547049152,5.895782981412,5.7482067738,0.0013999517,5.3308110258,0.1998173125,-5.1767,-3.5197,1.657,3.75776,311.13323,0.75424 1.27102 -0.03561,0.014079,0.003553,0.002846
2-0224,pubchemPCH,MKANLQAUBDOTBG-UHFFFAOYSA-N,Clc1cc2c(c(c1)Cl)c(Cl)c1c(c2)cc2c(c1)c(Cl)ccc2,C18H8Cl4,d4tzvp,366.074,8,18,4,-2532.181098864368,-2531.9627082427,0.0002122299,-2532.0259845881,5.821043447234,5.6734672397,0.0013999517,5.2560714925,0.1998173125,-7.5712,-1.2792,6.292,3.95488,297.75227,0.77764 1.34729 -0.03215,0.014079,0.003553,0.002846
2-0225,pubchemPCH,MKCASBPTHPJCDC-UHFFFAOYSA-N,c1c(Cl)c(Cl)cc2c1c(Cl)c(c(c2)Cl)Cl,C10H3Cl5,xtb2,300.399,3,10,5,-45.719787306543,-45.610069045398,0.000189114691,-45.666453590438,4.19374962628,4.126520875975,0.000758942769,3.90024208895,0.095016045885,-11.0778,-8.3479,2.729881498192,1.149,169.749596,0.073 0.446 -0.000,0.02141104,0.006506205,0.004989912
2-0225,pubchemPCH,MKCASBPTHPJCDC-UHFFFAOYSA-N,c1c(Cl)c(Cl)cc2c1c(Cl)c(c(c2)Cl)Cl,C10H3Cl5,r2scan,300.399,3,10,5,-2683.688857067085,-2683.5767137524,0.0001809003,-2683.6306491658,3.304914695085,3.2352600288,0.0008199359,2.9907960131,0.0979132455,-6.2039,-2.9265,3.2774,1.03227,193.06494,0.02818 0.40514 -0.00000,0.020821,0.006476,0.004939
2-0225,pubchemPCH,MKCASBPTHPJCDC-UHFFFAOYSA-N,c1c(Cl)c(Cl)cc2c1c(Cl)c(c(c2)Cl)Cl,C10H3Cl5,d4tzvp,300.399,3,10,5,-2684.284491581645,-2684.1723482669,0.0001809003,-2684.2262836803,3.279765973895,3.2101113077,0.0008199359,2.9656472923,0.0979132455,-8.9794,-0.4136,8.5658,1.09545,185.36346,0.02783 0.43007 0.00000,0.020821,0.006476,0.004939
2-0226,pubchemPCH,MKSCUIMVDXDORK-UHFFFAOYSA-N,c1c2c(cc3c1cc1c(c3)cccc1)cc1c(c2)c(Cl)c(c(c1Cl)Cl)Cl,C22H10Cl4,xtb2,416.134,10,22,4,-70.436841404073,-70.175484542596,0.000236727018,-70.24606470292,9.119393054839,8.943015215042,0.001581491732,8.471493453992,0.239273919238,-9.8822,-8.7172,1.164944310841,4.954,277.297657,1.949 -0.000 -0.000,0.01384188,0.002073423,0.001803301
2-0226,pubchemPCH,MKSCUIMVDXDORK-UHFFFAOYSA-N,c1c2c(cc3c1cc1c(c3)cccc1)cc1c(c2)c(Cl)c(c(c1Cl)Cl)Cl,C22H10Cl4,r2scan,416.134,10,22,4,-2684.914433605848,-2684.6473830783,0.0002277629,-2684.7152905736,7.17698967529,6.9949164447,0.0016985473,6.4884943816,0.2456695957,-4.856,-3.6041,1.2519,4.21522,406.13169,1.65836 -0.00007 -0.00004,0.013605,0.002063,0.001791
2-0226,pubchemPCH,MKSCUIMVDXDORK-UHFFFAOYSA-N,c1c2c(cc3c1cc1c(c3)cccc1)cc1c(c2)c(Cl)c(c(c1Cl)Cl)Cl,C22H10Cl4,d4tzvp,416.134,10,22,4,-2685.942828956593,-2685.6757784291003,0.0002277629,-2685.7436859244003,7.081470653647,6.8993974231,0.0016985473,6.392975361,0.2456695957,-7.1322,-1.4569,5.6753,4.25082,382.30417,1.67237 -0.00001 -0.00008,0.013605,0.002063,0.001791
2-0227,pubchemPCH,MMERLZFEDMCAPO-UHFFFAOYSA-N,Clc1ccc2c(c1)c1cc(Cl)cc(c1cc2)Cl,C14H7Cl3,xtb2,281.569,7,14,3,-47.227060204745,-47.052533016291,0.000188225394,-47.108652417642,5.9189562532,5.801081745866,0.001021711836,5.496458361484,0.159629478466,-10.6479,-7.7929,2.854984292472,2.006,184.440671,-0.378 0.693 0.000,0.01735823,0.007058292,0.005017891
2-0227,pubchemPCH,MMERLZFEDMCAPO-UHFFFAOYSA-N,Clc1ccc2c(c1)c1cc(Cl)cc(c1cc2)Cl,C14H7Cl3,r2scan,281.569,7,14,3,-1918.150652955599,-1917.9723295183,0.0001837036,-1918.0271007436,4.676746068693,4.5550741627,0.0010974376,4.2278730253,0.1638368997,-5.8533,-2.4608,3.3925,2.02039,214.42826,-0.36092 0.70820 0.00006,0.01716,0.006992,0.004968
2-0227,pubchemPCH,MMERLZFEDMCAPO-UHFFFAOYSA-N,Clc1ccc2c(c1)c1cc(Cl)cc(c1cc2)Cl,C14H7Cl3,d4tzvp,281.569,7,14,3,-1918.833485896341,-1918.655162459,0.0001837036,-1918.7099336843,4.622009327259,4.5003374212,0.0010974376,4.1731362845,0.1638368997,-8.5234,0.0303,8.5537,2.0366,207.40976,-0.34941 0.72104 0.00006,0.01716,0.006992,0.004968
2-0228,pubchemPCH,MMHZKSMAFILONG-UHFFFAOYSA-N,c1cc(Cl)c2c(c1)c(Cl)c(cc2)Cl,C10H5Cl3,xtb2,231.509,5,10,3,-37.626317852528,-37.499904431084,0.000167175439,-37.549747788215,4.278364914315,4.194441003711,0.000747073229,3.971701120099,0.114403720355,-10.7123,-7.8926,2.819681635787,1.482,144.615538,0.572 -0.112 -0.000,0.03461677,0.01211378,0.008973571
2-0228,pubchemPCH,MMHZKSMAFILONG-UHFFFAOYSA-N,c1cc(Cl)c2c(c1)c(Cl)c(cc2)Cl,C10H5Cl3,r2scan,231.509,5,10,3,-1764.534277258489,-1764.4049262128,0.0001626227,-1764.4534121837,3.383778092025,3.2969156948,0.0008043899,3.057086768,0.1177594452,-5.9492,-2.5777,3.3715,1.41049,155.93034,0.54295 -0.11465 0.00001,0.034027,0.011958,0.008849
2-0228,pubchemPCH,MMHZKSMAFILONG-UHFFFAOYSA-N,c1cc(Cl)c2c(c1)c(Cl)c(cc2)Cl,C10H5Cl3,d4tzvp,231.509,5,10,3,-1765.058292888436,-1764.9289418427002,0.0001626227,-1764.9774278136,3.348119205166,3.2612568079,0.0008043899,3.0214278816,0.1177594452,-8.7102,-0.0492,8.661,1.47985,152.75981,0.57021 -0.11757 0.00001,0.034027,0.011958,0.008849