id,subset,key,smiles,formula,level,mwt,nH,nC,nCl,E,H,S,G,dE,dH,dS,dG,zpe,homo,lumo,gap,Mu,alpha,tMu,rotA,rotB,rotC
2-0115,pubchemPCH,GTVXHLKDHOYLLZ-UHFFFAOYSA-N,c1ccc2c(c1)cc1c(c2Cl)cc2c(c1Cl)cccc2,C18H10Cl2,r2scan,297.184,10,18,2,-1612.160916376335,-1611.9252402206,0.000189296,-1611.9816788124,5.980323371755,5.8154616302,0.001389062,5.40131266,0.2197354885,-4.9538,-3.2625,1.6913,5E-05,272.38109,0.00000 0.00002 0.00000,0.01766,0.006697,0.004856
2-0115,pubchemPCH,GTVXHLKDHOYLLZ-UHFFFAOYSA-N,c1ccc2c(c1)cc1c(c2Cl)cc2c(c1Cl)cccc2,C18H10Cl2,d4tzvp,297.184,10,18,2,-1612.962021652505,-1612.7263454968,0.000189296,-1612.7827840886,5.896518159851,5.7316564182,0.001389062,5.317507449,0.2197354885,-7.3394,-1.0257,6.3137,2E-05,264.86174,-0.00000 -0.00000 0.00001,0.01766,0.006697,0.004856
2-0116,pubchemPCH,GTYKCKSHJRRYMK-UHFFFAOYSA-N,c1ccc2c(c1)c1ccc3c(c1cc2)ccc1c3cc(Cl)cc1,C22H13Cl,xtb2,312.799,13,22,1,-58.315708344548,-58.028317769989,0.000208486312,-58.090477964023,9.265387108389,9.06297555551,0.00155901925,8.598153965153,0.269310603565,-10.1565,-7.5177,2.638736233596,2.303,239.860902,0.690 0.588 -0.000,0.02324585,0.003729582,0.003213936
2-0116,pubchemPCH,GTYKCKSHJRRYMK-UHFFFAOYSA-N,c1ccc2c(c1)c1ccc3c(c1cc2)ccc1c3cc(Cl)cc1,C22H13Cl,r2scan,312.799,13,22,1,-1306.209499325382,-1305.9160220612,0.0002024842,-1305.9763927326,7.322220203128,7.113720236,0.0016730906,6.6148881461,0.2759133742,-5.4355,-2.2684,3.1671,2.11432,305.19362,0.61997 0.55458 0.00003,0.022992,0.003702,0.003188
2-0116,pubchemPCH,GTYKCKSHJRRYMK-UHFFFAOYSA-N,c1ccc2c(c1)c1ccc3c(c1cc2)ccc1c3cc(Cl)cc1,C22H13Cl,d4tzvp,312.799,13,22,1,-1307.140815785912,-1306.8473385217,0.0002024842,-1306.9077091931,7.221285369686,7.0127854023,0.0016730906,6.5139533137,0.2759133742,-7.9883,0.1894,8.1777,2.13031,292.52729,0.61224 0.57236 0.00003,0.022992,0.003702,0.003188
2-0117,pubchemPCH,GVCJAKCZGNNUST-UHFFFAOYSA-N,c1c(Cl)c(Cl)cc2c1ccc1c2c(Cl)ccc1,C14H7Cl3,xtb2,281.569,7,14,3,-47.218259664854,-47.043737573164,0.000187043885,-47.099504707505,5.910155713309,5.792286302739,0.001022893345,5.487310651347,0.159679345735,-10.6404,-7.7498,2.890573399626,4.202,184.533914,-1.346 0.960 0.049,0.0213708,0.007798482,0.005781921
2-0117,pubchemPCH,GVCJAKCZGNNUST-UHFFFAOYSA-N,c1c(Cl)c(Cl)cc2c1ccc1c2c(Cl)ccc1,C14H7Cl3,r2scan,281.569,7,14,3,-1918.137463388289,-1917.9589621752,0.0001821402,-1918.0132672903,4.663556501383,4.5417068196,0.001099001,4.214039572,0.164147796,-5.8455,-2.4299,3.4156,3.98696,213.14611,-1.26664 0.92277 0.06712,0.020967,0.007693,0.005695
2-0117,pubchemPCH,GVCJAKCZGNNUST-UHFFFAOYSA-N,c1c(Cl)c(Cl)cc2c1ccc1c2c(Cl)ccc1,C14H7Cl3,d4tzvp,281.569,7,14,3,-1918.821073480078,-1918.642572267,0.0001821402,-1918.6968773821,4.609596910996,4.4877472292,0.001099001,4.1600799823,0.164147796,-8.5202,0.0713,8.5915,4.16368,206.14294,-1.33088 0.95270 0.06660,0.020967,0.007693,0.005695
2-0118,pubchemPCH,GXQUDLBNLKOIQB-UHFFFAOYSA-N,c1c(Cl)c(Cl)c2c(c1Cl)cc(c(c2)Cl)Cl,C10H3Cl5,xtb2,300.399,3,10,5,-45.721509555672,-45.611753529344,0.0001890086,-45.668106443329,4.195471875409,4.128205359921,0.00075904886,3.901894941841,0.095058819621,-10.9862,-8.3622,2.623995659018,0.792,169.67145,-0.218 0.223 -0.000,0.01633324,0.007827857,0.005291741
2-0118,pubchemPCH,GXQUDLBNLKOIQB-UHFFFAOYSA-N,c1c(Cl)c(Cl)c2c(c1Cl)cc(c(c2)Cl)Cl,C10H3Cl5,r2scan,300.399,3,10,5,-2683.691766519485,-2683.5795228621,0.0001834822,-2683.6342280708,3.307824147485,3.2380691385,0.000817354,2.9943749181,0.0979785566,-6.1642,-2.9632,3.201,0.83984,190.76613,-0.24945 0.21667 -0.00000,0.016022,0.007762,0.005229
2-0118,pubchemPCH,GXQUDLBNLKOIQB-UHFFFAOYSA-N,c1c(Cl)c(Cl)c2c(c1Cl)cc(c(c2)Cl)Cl,C10H3Cl5,d4tzvp,300.399,3,10,5,-2684.28712147376,-2684.1748778164,0.0001834822,-2684.2295830251,3.28239586601,3.2126408572,0.000817354,2.9689466371,0.0979785566,-8.9367,-0.4613,8.4754,0.95625,183.84163,-0.29490 0.23360 -0.00000,0.016022,0.007762,0.005229
2-0119,pubchemPCH,HCXQIPJKJNLQNV-UHFFFAOYSA-N,c1c2-c3c(-c2cc(c1Cl)Cl)cccc3,C12H6Cl2,xtb2,221.086,6,12,2,-37.79384808388,-37.647184913392,0.000164538211,-37.696241981084,4.948344773962,4.848892171074,0.000839212317,4.598681018284,0.134622426221,-10.3201,-7.7783,2.541789198368,3.309,146.781434,-1.302 0.000 -0.000,0.04867946,0.009688859,0.008080556
2-0119,pubchemPCH,HCXQIPJKJNLQNV-UHFFFAOYSA-N,c1c2-c3c(-c2cc(c1Cl)Cl)cccc3,C12H6Cl2,r2scan,221.086,6,12,2,-1381.074957819871,-1380.9255350076,0.0001611627,-1380.9735856792,3.876748081639,3.7745348788,0.0009023505,3.5054989986,0.1376521789,-5.4111,-2.5284,2.8827,3.08368,174.80979,-1.21319 0.00002 -0.00001,0.0475,0.009576,0.007969
2-0119,pubchemPCH,HCXQIPJKJNLQNV-UHFFFAOYSA-N,c1c2-c3c(-c2cc(c1Cl)Cl)cccc3,C12H6Cl2,d4tzvp,221.086,6,12,2,-1381.637697318817,-1381.4882745065,0.0001611627,-1381.5363251781,3.829177682221,3.7269644793,0.0009023505,3.4579285997,0.1376521789,-8.135,0.1043,8.2393,3.16776,168.43451,-1.24627 0.00002 -0.00001,0.0475,0.009576,0.007969
2-0120,pubchemPCH,HFALCJQXDMFOPN-UHFFFAOYSA-N,Clc1ccc2-c3c4c(-c2c1Cl)ccc(c4ccc3)Cl,C16H7Cl3,xtb2,305.591,7,16,3,-51.5134161477,-51.325946415257,0.000194410422,-51.383909882693,6.618719453425,6.492623458862,0.001121933064,6.158119115165,0.171649073445,-10.6189,-8.3078,2.311120432374,2.62,201.827959,0.413 -0.945 0.000,0.02110935,0.005816713,0.004560155
2-0120,pubchemPCH,HFALCJQXDMFOPN-UHFFFAOYSA-N,Clc1ccc2-c3c4c(-c2c1Cl)ccc(c4ccc3)Cl,C16H7Cl3,r2scan,305.591,7,16,3,-1994.347137569119,-1994.1557654837,0.0001889739,-1994.2121080433,5.208798507677,5.0787989145,0.0012055797,4.7193551916,0.1759778976,-5.8823,-3.1035,2.7788,2.42098,239.75441,0.35942 -0.88205 0.00002,0.020969,0.005733,0.004502
2-0120,pubchemPCH,HFALCJQXDMFOPN-UHFFFAOYSA-N,Clc1ccc2-c3c4c(-c2c1Cl)ccc(c4ccc3)Cl,C16H7Cl3,d4tzvp,305.591,7,16,3,-1995.103979243239,-1994.9126071578,0.0001889739,-1994.9689497174,5.146880758591,5.0168811654,0.0012055797,4.6574374432,0.1759778976,-8.5249,-0.7367,7.7882,2.44143,230.40487,0.30003 -0.91245 0.00001,0.020969,0.005733,0.004502
2-0121,pubchemPCH,HGSDQSUMXKHGTH-UHFFFAOYSA-N,Clc1cc(Cl)c2c(c1)c(Cl)cc(c2Cl)Cl,C10H3Cl5,xtb2,300.399,3,10,5,-45.715654519479,-45.605954759074,0.00018806089,-45.662025113392,4.189616839216,4.122406589651,0.00075999657,3.895813611904,0.095032809463,-10.8775,-8.3608,2.516705568682,0.772,169.683638,0.112 0.282 0.000,0.01456619,0.009287979,0.005671565
2-0121,pubchemPCH,HGSDQSUMXKHGTH-UHFFFAOYSA-N,Clc1cc(Cl)c2c(c1)c(Cl)cc(c2Cl)Cl,C10H3Cl5,r2scan,300.399,3,10,5,-2683.678205740372,-2683.5659936504,0.0001838102,-2683.6207966639,3.294263368372,3.2245399268,0.000817026,2.9809435112,0.0979684627,-6.0413,-2.9787,3.0626,0.81184,189.13312,0.08585 0.30706 0.01884,0.014238,0.009146,0.005599
2-0121,pubchemPCH,HGSDQSUMXKHGTH-UHFFFAOYSA-N,Clc1cc(Cl)c2c(c1)c(Cl)cc(c2Cl)Cl,C10H3Cl5,d4tzvp,300.399,3,10,5,-2684.273539002645,-2684.1613269126,0.0001838102,-2684.2161299261,3.268813394895,3.1990899534,0.000817026,2.9554935381,0.0979684627,-8.7876,-0.495,8.2926,0.9164,182.68408,0.09866 0.34622 0.01952,0.014238,0.009146,0.005599
2-0122,pubchemPCH,HHNOQNVTQVFYLT-UHFFFAOYSA-N,c1ccc2-c3c(-c2c1)cc(c(c3Cl)Cl)Cl,C12H5Cl3,xtb2,255.531,5,12,3,-41.84104638707,-41.702555244311,0.000178381849,-41.755739792444,4.906500706127,4.815220130968,0.000842273075,4.564096412958,0.125063957261,-10.5108,-8.0071,2.50368394063,3.566,159.143537,1.339 -0.418 0.000,0.02618848,0.009623621,0.00703751
2-0122,pubchemPCH,HHNOQNVTQVFYLT-UHFFFAOYSA-N,c1ccc2-c3c(-c2c1)cc(c(c3Cl)Cl)Cl,C12H5Cl3,r2scan,255.531,5,12,3,-1840.65278668848,-1840.5117224845,0.0001739208,-1840.5635769845,3.83785534748,3.7440007529,0.0009065042,3.4737264354,0.1279417281,-5.5507,-2.706,2.8447,3.26033,188.03544,1.21323 -0.41635 0.00008,0.025789,0.009529,0.006958
2-0122,pubchemPCH,HHNOQNVTQVFYLT-UHFFFAOYSA-N,c1ccc2-c3c(-c2c1)cc(c(c3Cl)Cl)Cl,C12H5Cl3,d4tzvp,255.531,5,12,3,-1841.251278290594,-1841.1102140866,0.0001739208,-1841.1620685866,3.795482691758,3.7016280972,0.0009065042,3.4313537802,0.1279417281,-8.2789,-0.0803,8.1986,3.37874,180.68808,1.25685 -0.43277 0.00009,0.025789,0.009529,0.006958
2-0123,pubchemPCH,HIRNFUSXAFQIDT-UHFFFAOYSA-N,Clc1c(Cl)c(Cl)c2c3c1c(Cl)ccc3c1c3c2c(Cl)c(Cl)c(c3c(c(c1Cl)Cl)Cl)Cl,C20H2Cl10,xtb2,596.766,2,20,10,-89.423594493159,-89.246200968584,0.000281365628,-89.33009013069,7.945450188377,7.843593571962,0.001448997192,7.411575058318,0.14956670239,-10.6731,-9.1599,1.513145438,1.835,329.868152,-0.089 -0.666 0.264,0.004146049,0.002378528,0.001632529
2-0123,pubchemPCH,HIRNFUSXAFQIDT-UHFFFAOYSA-N,Clc1c(Cl)c(Cl)c2c3c1c(Cl)ccc3c1c3c2c(Cl)c(Cl)c(c3c(c(c1Cl)Cl)Cl)Cl,C20H2Cl10,r2scan,596.766,2,20,10,-5364.953653821202,-5364.7723339964,0.0002694475,-5364.8526697585,6.174855819942,6.06907137,0.0015576173,5.6046675247,0.1545081283,-5.6597,-3.8584,1.8013,1.62082,420.83844,-0.06833 -0.58616 0.24158,0.004088,0.002354,0.001631
2-0123,pubchemPCH,HIRNFUSXAFQIDT-UHFFFAOYSA-N,Clc1c(Cl)c(Cl)c2c3c1c(Cl)ccc3c1c3c2c(Cl)c(Cl)c(c3c(c(c1Cl)Cl)Cl)Cl,C20H2Cl10,d4tzvp,596.766,2,20,10,-5366.121881693378,-5365.9405618686005,0.0002694475,-5366.0208976307,6.132548587238,6.0267641378,0.0015576173,5.5623602927,0.1545081283,-8.1316,-1.6796,6.452,1.79671,391.41699,-0.00213 -0.65673 0.26145,0.004088,0.002354,0.001631
2-0124,pubchemPCH,HIUSGPNJAMPAIM-UHFFFAOYSA-N,c1cccc2c1c(Cl)c1c(c2Cl)c(Cl)c2c(c1Cl)cccc2,C18H8Cl4,xtb2,366.074,8,18,4,-60.835408459076,-60.621637153627,0.000212287164,-60.684930571483,7.478111123174,7.335155669125,0.001310243024,6.944506710597,0.194698121774,-9.9487,-8.65,1.298736784026,0.0,237.051057,0.000 -0.000 0.000,0.01020992,0.006325058,0.004008481
2-0124,pubchemPCH,HIUSGPNJAMPAIM-UHFFFAOYSA-N,c1cccc2c1c(Cl)c1c(c2Cl)c(Cl)c2c(c1Cl)cccc2,C18H8Cl4,r2scan,366.074,8,18,4,-2531.282509613362,-2531.0638266468,0.0002073095,-2531.1256359664,5.868473403246,5.7206048508,0.0014048721,5.301742077,0.2002514355,-5.0294,-3.6031,1.4263,0.00076,303.24589,-0.00000 -0.00030 -0.00000,0.010052,0.00621,0.004047
2-0124,pubchemPCH,HIUSGPNJAMPAIM-UHFFFAOYSA-N,c1cccc2c1c(Cl)c1c(c2Cl)c(Cl)c2c(c1Cl)cccc2,C18H8Cl4,d4tzvp,366.074,8,18,4,-2532.155433528771,-2531.9367505622,0.0002073095,-2531.9985598818,5.795378111637,5.6475095592,0.0014048721,5.2286467862,0.2002514355,-7.4273,-1.4373,5.99,0.0007,294.00797,-0.00001 -0.00027 -0.00001,0.010052,0.00621,0.004047
2-0125,pubchemPCH,HJJKSUVYCQAMBG-UHFFFAOYSA-N,c1cc(Cl)c2c(c1)c(Cl)c(c(c2)Cl)Cl,C10H4Cl4,xtb2,265.954,4,10,4,-41.672445889527,-41.554355158235,0.000178108587,-41.607458233311,4.235450580289,4.159849359837,0.000753044477,3.935329148509,0.104737304916,-10.8746,-8.1191,2.755559538298,2.476,157.201134,0.892 -0.392 0.000,0.02004048,0.01148177,0.007299614
2-0125,pubchemPCH,HJJKSUVYCQAMBG-UHFFFAOYSA-N,c1cc(Cl)c2c(c1)c(Cl)c(c(c2)Cl)Cl,C10H4Cl4,r2scan,265.954,4,10,4,-2224.11054856436,-2223.9896805975,0.0001726927,-2224.041168926,3.343327795128,3.2649484767,0.0008112317,3.0230796418,0.1079877579,-6.0445,-2.7586,3.2859,2.37575,171.75937,0.83488 -0.42022 0.00000,0.019671,0.011373,0.007207
2-0125,pubchemPCH,HJJKSUVYCQAMBG-UHFFFAOYSA-N,c1cc(Cl)c2c(c1)c(Cl)c(c(c2)Cl)Cl,C10H4Cl4,d4tzvp,265.954,4,10,4,-2224.670745837094,-2224.5498778702004,0.0001726927,-2224.6013661987004,3.313296191584,3.2349168732,0.0008112317,2.9930480387,0.1079877579,-8.8051,-0.2476,8.5575,2.52721,167.06376,0.89631 -0.43033 0.00001,0.019671,0.011373,0.007207
2-0126,pubchemPCH,HJNAELFLZXCHQK-UHFFFAOYSA-N,c1c(Cl)cc2c(c1)c1ccccc1cc2,C14H9Cl,xtb2,212.679,9,14,1,-39.12483776875,-38.93383424517,0.000166387871,-38.983442788998,5.994818559255,5.860467716795,0.001009740567,5.559413566212,0.178767787384,-10.5069,-7.3482,3.158664452283,2.251,159.919603,-0.886 -0.003 -0.000,0.05442092,0.0098774,0.008360051
2-0126,pubchemPCH,HJNAELFLZXCHQK-UHFFFAOYSA-N,c1c(Cl)cc2c(c1)c1ccccc1cc2,C14H9Cl,r2scan,212.679,9,14,1,-998.988306354513,-998.7931542528,0.0001624702,-998.8415947422,4.747842673143,4.6093421028,0.0010848474,4.2858947609,0.183281673,-5.7758,-2.1172,3.6586,2.10932,182.64531,-0.82956 -0.02208 -0.00001,0.053908,0.00978,0.008278
2-0126,pubchemPCH,HJNAELFLZXCHQK-UHFFFAOYSA-N,c1c(Cl)cc2c(c1)c1ccccc1cc2,C14H9Cl,d4tzvp,212.679,9,14,1,-999.600561996344,-999.4054098946,0.0001624702,-999.453850384,4.683637351742,4.5451367812,0.0010848474,4.2216894402,0.183281673,-8.4527,0.4287,8.8814,2.12981,178.74557,-0.83782 -0.01221 -0.00000,0.053908,0.00978,0.008278
2-0127,pubchemPCH,HOWYWJBAUVISOC-UHFFFAOYSA-N,Clc1c(Cl)c(Cl)c2c(c1)c(Cl)c(c1c2c(Cl)cc(c1Cl)Cl)Cl,C14H2Cl8,xtb2,453.794,2,14,8,-67.436749915253,-67.304111470444,0.000238051411,-67.375086498711,5.683434108583,5.607448344894,0.001056407799,5.292480359123,0.11113893404,-10.9805,-8.693,2.287434066177,0.399,247.381069,0.045 -0.020 0.149,0.007715199,0.003894883,0.002750762
2-0127,pubchemPCH,HOWYWJBAUVISOC-UHFFFAOYSA-N,Clc1c(Cl)c(Cl)c2c(c1)c(Cl)c(c1c2c(Cl)cc(c1Cl)Cl)Cl,C14H2Cl8,r2scan,453.794,2,14,8,-4215.994971055336,-4215.8590144971,0.0002275495,-4215.9268583884,4.437456154589,4.3581511275,0.0011381507,4.0188113276,0.1153162714,-6.1215,-3.3591,2.7624,0.41229,292.92415,0.01881 -0.03351 0.15759,0.007513,0.003852,0.002756
2-0127,pubchemPCH,HOWYWJBAUVISOC-UHFFFAOYSA-N,Clc1c(Cl)c(Cl)c2c(c1)c(Cl)c(c1c2c(Cl)cc(c1Cl)Cl)Cl,C14H2Cl8,d4tzvp,453.794,2,14,8,-4216.85910094165,-4216.723144383401,0.0002275495,-4216.790988274701,4.411244561367,4.3319395346,0.0011381507,3.9925997349,0.1153162714,-8.8461,-0.9551,7.891,0.46727,276.82919,0.03298 -0.02770 0.17872,0.007513,0.003852,0.002756
2-0128,pubchemPCH,HPKJTXSHAMXMJR-UHFFFAOYSA-N,c1ccc2c3c1cccc3c1c3c2cc(Cl)c(c3c(c(c1Cl)Cl)Cl)Cl,C20H7Cl5,xtb2,424.541,7,20,5,-69.199999613798,-68.981002378207,0.000232130623,-69.050212123404,8.167067164141,8.02360683671,0.001413710217,7.602109134462,0.197844619049,-10.2793,-8.5976,1.681693922013,4.745,267.112208,-1.830 -0.362 -0.079,0.006679297,0.004915151,0.00289235
2-0128,pubchemPCH,HPKJTXSHAMXMJR-UHFFFAOYSA-N,c1ccc2c3c1cccc3c1c3c2cc(Cl)c(c3c(c(c1Cl)Cl)Cl)Cl,C20H7Cl5,r2scan,424.541,7,20,5,-3067.094444430879,-3066.870602556,0.0002231404,-3066.9371318646,6.399254443459,6.2509479436,0.0015193654,5.7979489733,0.2034307621,-5.3245,-3.414,1.9105,4.4269,336.97193,-1.72055 -0.24071 -0.12274,0.006573,0.004883,0.002878
2-0128,pubchemPCH,HPKJTXSHAMXMJR-UHFFFAOYSA-N,c1ccc2c3c1cccc3c1c3c2cc(Cl)c(c3c(c(c1Cl)Cl)Cl)Cl,C20H7Cl5,d4tzvp,424.541,7,20,5,-3068.081330720381,-3067.8574888455,0.0002231404,-3067.9240181541,6.328377425441,6.1800709257,0.0015193654,5.7270719561,0.2034307621,-7.7354,-1.185,6.5504,4.5432,319.12815,-1.76139 -0.27521 -0.12859,0.006573,0.004883,0.002878
2-0129,pubchemPCH,HPXWFJQPLQYKIL-UHFFFAOYSA-N,Clc1c(Cl)cc2c(c1)ccc1c2cc(Cl)cc1,C14H7Cl3,xtb2,281.569,7,14,3,-47.225642640575,-47.051163692838,0.000188178246,-47.107269037004,5.91753868903,5.799712422413,0.001021758984,5.495074980846,0.159592779955,-10.6931,-7.7793,2.913811351351,3.201,184.523956,-0.624 1.094 -0.000,0.02208191,0.00618194,0.00482981
2-0129,pubchemPCH,HPXWFJQPLQYKIL-UHFFFAOYSA-N,Clc1c(Cl)cc2c(c1)ccc1c2cc(Cl)cc1,C14H7Cl3,r2scan,281.569,7,14,3,-1918.148744690935,-1917.9705843713,0.0001832232,-1918.0252123768,4.674837804029,4.5533290157,0.001097918,4.2259846585,0.1636935053,-5.8882,-2.4319,3.4563,3.08007,216.74746,-0.57433 1.06702 -0.00001,0.021744,0.006138,0.004787
2-0129,pubchemPCH,HPXWFJQPLQYKIL-UHFFFAOYSA-N,Clc1c(Cl)cc2c(c1)ccc1c2cc(Cl)cc1,C14H7Cl3,d4tzvp,281.569,7,14,3,-1918.831851426516,-1918.6536911069,0.0001832232,-1918.7083191124,4.620374857434,4.4988660691,0.001097918,4.1715217126,0.1636935053,-8.5691,0.0801,8.6492,3.20451,208.89236,-0.60282 1.10726 -0.00001,0.021744,0.006138,0.004787
2-0130,pubchemPCH,HQBYKTTWFDWIRV-UHFFFAOYSA-N,c1c(Cl)cc2c(c1Cl)cc1c(c2)c(Cl)cc(c1)Cl,C14H6Cl4,xtb2,316.014,6,14,4,-51.270809674248,-51.10485850122,0.000196453577,-51.163431135345,5.873663351678,5.76436485977,0.001030388049,5.457154662501,0.149721448046,-10.5619,-8.5008,2.061140828371,0.0,196.832445,0.000 -0.000 0.000,0.01573437,0.004996496,0.003792254
2-0130,pubchemPCH,HQBYKTTWFDWIRV-UHFFFAOYSA-N,c1c(Cl)cc2c(c1Cl)cc1c(c2)c(Cl)cc(c1)Cl,C14H6Cl4,r2scan,316.014,6,14,4,-2377.724154514103,-2377.5545484503,0.0001911541,-2377.611541051,4.633526024429,4.5205714919,0.0011068989,4.1905494642,0.1538468604,-5.6306,-3.2571,2.3735,5E-05,241.95497,-0.00000 -0.00002 -0.00000,0.015473,0.004952,0.003752
2-0130,pubchemPCH,HQBYKTTWFDWIRV-UHFFFAOYSA-N,c1c(Cl)cc2c(c1Cl)cc1c(c2)c(Cl)cc(c1)Cl,C14H6Cl4,d4tzvp,316.014,6,14,4,-2378.438832076163,-2378.2692260124,0.0001911541,-2378.3262186131,4.580079544841,4.4671250124,0.0011068989,4.1371029853,0.1538468604,-8.1898,-0.871,7.3188,1E-05,232.0477,-0.00000 -0.00000 -0.00001,0.015473,0.004952,0.003752
2-0131,pubchemPCH,HRNUANUFOMCWJJ-UHFFFAOYSA-N,Clc1c(Cl)c(Cl)c(c2c1c(Cl)c1c(c2)c(Cl)c(c(c1Cl)Cl)Cl)Cl,C14HCl9,xtb2,488.239,1,14,9,-71.478429550438,-71.354044504957,0.000249150747,-71.428328800171,5.636071372743,5.568339008382,0.001062212859,5.251640243897,0.101460956141,-10.8277,-9.1385,1.689202855765,0.489,260.184553,0.000 -0.191 0.020,0.007544932,0.002935418,0.002128852
2-0131,pubchemPCH,HRNUANUFOMCWJJ-UHFFFAOYSA-N,Clc1c(Cl)c(Cl)c(c2c1c(Cl)c1c(c2)c(Cl)c(c(c1Cl)Cl)Cl)Cl,C14HCl9,r2scan,488.239,1,14,9,-4675.566032339378,-4675.438574344,0.0002374225,-4675.5093618676,4.391795835864,4.3209893716,0.0011451895,3.9795509383,0.1054953336,-5.8252,-3.8202,2.005,0.63468,320.4441,0.00003 -0.24967 0.00337,0.007442,0.002917,0.002129
2-0131,pubchemPCH,HRNUANUFOMCWJJ-UHFFFAOYSA-N,Clc1c(Cl)c(Cl)c(c2c1c(Cl)c1c(c2)c(Cl)c(c(c1Cl)Cl)Cl)Cl,C14HCl9,d4tzvp,488.239,1,14,9,-4676.46433094051,-4676.3368729451,0.0002374225,-4676.4076604687,4.369198597988,4.2983921341,0.0011451895,3.9569537009,0.1054953336,-8.4012,-1.5598,6.8414,0.75596,302.43234,0.00007 -0.29714 0.01261,0.007442,0.002917,0.002129
2-0132,pubchemPCH,HSWXYXCKAUWHON-UHFFFAOYSA-N,Clc1c(Cl)cc2c(c1Cl)c1c(Cl)c(Cl)c(c(c1cc2)Cl)Cl,C14H3Cl7,xtb2,419.349,3,14,7,-63.39393618474,-63.252895822128,0.000228192409,-63.320931388931,5.729662749095,5.645275067603,0.001049362405,5.332407666029,0.120844563446,-10.9406,-8.4334,2.50725474952,2.866,234.858395,-0.175 1.109 0.107,0.01143827,0.003755403,0.002999372
2-0132,pubchemPCH,HSWXYXCKAUWHON-UHFFFAOYSA-N,Clc1c(Cl)cc2c(c1Cl)c1c(Cl)c(Cl)c(c(c1cc2)Cl)Cl,C14H3Cl7,r2scan,419.349,3,14,7,-3756.428274430174,-3756.2836380929,0.0002178092,-3756.348577911,4.487481132196,4.3994963261,0.0011309792,4.0622947187,0.1253478498,-6.0556,-3.0235,3.0321,2.65176,277.21764,-0.14465 1.02703 0.11257,0.011223,0.003696,0.002977
2-0132,pubchemPCH,HSWXYXCKAUWHON-UHFFFAOYSA-N,Clc1c(Cl)cc2c(c1Cl)c1c(Cl)c(Cl)c(c(c1cc2)Cl)Cl,C14H3Cl7,d4tzvp,419.349,3,14,7,-3757.256540284322,-3757.111903947,0.0002178092,-3757.1768437651,4.45595986628,4.3679750604,0.0011309792,4.0307734533,0.1253478498,-8.7599,-0.6026,8.1573,2.85415,262.73711,-0.14024 1.10735 0.12239,0.011223,0.003696,0.002977
2-0133,pubchemPCH,HUCMNHBKXWDYIB-UHFFFAOYSA-N,c1c(Cl)cc2c(c1)c1cccc(c1cc2)Cl,C14H8Cl2,xtb2,247.124,8,14,2,-43.176536863203,-42.993689481688,0.000177131373,-43.046501200487,5.957475282683,5.831280582288,0.001015901461,5.528389561015,0.169297664825,-10.6024,-7.5896,3.012766249728,1.609,172.094785,-0.273 -0.571 0.000,0.0407512,0.007052766,0.006012235
2-0133,pubchemPCH,HUCMNHBKXWDYIB-UHFFFAOYSA-N,c1c(Cl)cc2c(c1)c1cccc(c1cc2)Cl,C14H8Cl2,r2scan,247.124,8,14,2,-1458.569428860875,-1458.3826446753,0.0001728349,-1458.4341754078,4.712243576737,4.5821109225,0.0010913945,4.256711558,0.1736116738,-5.8696,-2.3336,3.536,1.55024,198.176,-0.24405 -0.55894 0.00006,0.040404,0.006968,0.005943
2-0133,pubchemPCH,HUCMNHBKXWDYIB-UHFFFAOYSA-N,c1c(Cl)cc2c(c1)c1cccc(c1cc2)Cl,C14H8Cl2,d4tzvp,247.124,8,14,2,-1459.217094766662,-1459.0303105811,0.0001728349,-1459.0818413136,4.65289415982,4.5227615055,0.0010913945,4.1973621418,0.1736116738,-8.5618,0.1956,8.7574,1.59478,192.84812,-0.26684 -0.56785 0.00006,0.040404,0.006968,0.005943
2-0134,pubchemPCH,HUNSJRGBYUHHRT-UHFFFAOYSA-N,Clc1cc(Cl)c2c(c1)c1cc(Cl)cc(c1cc2)Cl,C14H6Cl4,xtb2,316.014,6,14,4,-51.276174073478,-51.10988043542,0.000196489665,-51.168463828993,5.879027750908,5.76938679397,0.001030351961,5.462187356149,0.150058789342,-10.7716,-7.9983,2.773271620395,0.303,196.8362,-0.000 0.119 0.000,0.01285932,0.005980278,0.004081951