id,subset,key,smiles,formula,level,mwt,nH,nC,nCl,E,H,S,G,dE,dH,dS,dG,zpe,homo,lumo,gap,Mu,alpha,tMu,rotA,rotB,rotC
3-0192,monoCl,DXIGEXZWWKGNRX-UHFFFAOYSA-N,c1cc(Cl)c2-c3c(-c2c1)cc1c(c3)cc2c(c1)cccc2,C20H11Cl,d4tzvp,286.761,11,20,1,-1229.563842431315,-1229.3079665875998,0.000191731,-1229.3651311822998,6.399992985335,6.2196525166,0.0014831276,5.7774578963,0.2398751256,-7.773,-0.2485,7.5245,1.64508,282.62289,-0.02895 -0.64656 0.00007,0.029108,0.004278,0.00373
3-0193,monoCl,DYRWFXMHVYOADJ-UHFFFAOYSA-N,c1ccc2c(c1)cc1-c3c(-c1c2)cc1c(c3)c(Cl)ccc1,C20H11Cl,xtb2,286.761,11,20,1,-52.946495378724,-52.695413677634,0.0001962109,-52.753913957432,8.269732413167,8.094187620237,0.001382012356,7.682140635234,0.234727702462,-10.29,-7.5734,2.716588826708,1.96,214.736324,0.345 -0.689 -0.000,0.02981889,0.004288666,0.003749412
3-0193,monoCl,DYRWFXMHVYOADJ-UHFFFAOYSA-N,c1ccc2c(c1)cc1-c3c(-c1c2)cc1c(c3)c(Cl)ccc1,C20H11Cl,r2scan,286.761,11,20,1,-1228.72914030706,-1228.4730312958,0.0001910648,-1228.5299972543,6.500836730712,6.3202630946,0.0014837938,5.877869837,0.2402140566,-5.5416,-2.5963,2.9453,1.86708,297.59046,0.33595 -0.65323 -0.00001,0.029478,0.004236,0.003704
3-0193,monoCl,DYRWFXMHVYOADJ-UHFFFAOYSA-N,c1ccc2c(c1)cc1-c3c(-c1c2)cc1c(c3)c(Cl)ccc1,C20H11Cl,d4tzvp,286.761,11,20,1,-1229.571805644587,-1229.3156966333,0.0001910648,-1229.3726625918002,6.407956198607,6.2273825623,0.0014837938,5.7849893058,0.2402140566,-8.1051,-0.2653,7.8398,1.83806,280.09555,0.28616 -0.66411 0.00001,0.029478,0.004236,0.003704
3-0194,monoCl,DYUNOGWBOZUPJX-UHFFFAOYSA-N,c1cc(Cl)cc2c1cc1ccc3c4c1c2-c1cccc(c41)cc3,C22H11Cl,xtb2,310.783,11,22,1,-57.289046236792,-57.024411831302,0.000198312402,-57.083538673812,9.025690528505,8.841314087935,0.00148631711,8.398168640244,0.2478235087,-10.1215,-8.1829,1.938553263605,2.215,234.385799,0.589 0.642 0.000,0.01532823,0.005918743,0.004269967
3-0194,monoCl,DYUNOGWBOZUPJX-UHFFFAOYSA-N,c1cc(Cl)cc2c1cc1ccc3c4c1c2-c1cccc(c41)cc3,C22H11Cl,r2scan,310.783,11,22,1,-1304.990715619187,-1304.7208935922,0.0001946301,-1304.7789225512,7.097979868303,6.9084141774,0.0015936409,6.4332700005,0.2532671076,-5.3683,-3.1446,2.2237,1.95915,296.00831,0.46402 0.61544 0.00017,0.015183,0.005869,0.004233
3-0194,monoCl,DYUNOGWBOZUPJX-UHFFFAOYSA-N,c1cc(Cl)cc2c1cc1ccc3c4c1c2-c1cccc(c41)cc3,C22H11Cl,d4tzvp,310.783,11,22,1,-1305.906348416403,-1305.6365263894,0.0001946301,-1305.6945553484,6.996877054857,6.8073113638,0.0015936409,6.332167188,0.2532671076,-7.8798,-0.8887,6.9911,2.03534,285.08941,0.48066 0.64044 0.00017,0.015183,0.005869,0.004233
3-0195,monoCl,DYXAJQQYBPNLTB-UHFFFAOYSA-N,c1ccc2c(c1)cc1c(c2Cl)c2ccc3c(c2cc1)ccc1c3cccc1,C26H15Cl,xtb2,362.859,15,26,1,-67.898950942496,-67.56366352657,0.000226026685,-67.63105338261,10.888478693005,10.652333469039,0.001837167439,10.104581995698,0.314502163181,-9.9002,-7.7722,2.128000803636,1.451,279.887173,-0.078 -0.536 0.179,0.01887812,0.002924029,0.00256324
3-0195,monoCl,DYXAJQQYBPNLTB-UHFFFAOYSA-N,c1ccc2c(c1)cc1c(c2Cl)c2ccc3c(c2cc1)ccc1c3cccc1,C26H15Cl,r2scan,362.859,15,26,1,-1459.801780018561,-1459.4588372011,0.0002185409,-1459.5239951671,8.591093175865,8.3472905383,0.0019711625,7.759588278,0.3228688659,-5.1292,-2.7105,2.4187,1.28007,378.68728,-0.11237 -0.45079 0.19439,0.018725,0.002879,0.002526
3-0195,monoCl,DYXAJQQYBPNLTB-UHFFFAOYSA-N,c1ccc2c(c1)cc1c(c2Cl)c2ccc3c(c2cc1)ccc1c3cccc1,C26H15Cl,d4tzvp,362.859,15,26,1,-1460.890782903492,-1460.547840086,0.0002185409,-1460.612998052,8.469949601454,8.2261469636,0.0019711625,7.6384447048,0.3228688659,-7.6052,-0.3743,7.2309,1.37193,358.3721,-0.15239 -0.47849 0.19787,0.018725,0.002879,0.002526
3-0196,monoCl,DZDNPDARHNGXAN-UHFFFAOYSA-N,c1ccc2c(c1)c(Cl)cc1c2ccc2c1cc1c(c2)ccc2c1cccc2,C26H15Cl,xtb2,362.859,15,26,1,-67.910224770862,-67.574842039263,0.000228754023,-67.643045051346,10.899752521371,10.663511981732,0.001834440101,10.116573664434,0.314429645422,-9.9863,-7.7063,2.280034326544,1.906,279.863683,-0.150 -0.735 -0.000,0.01311365,0.003172477,0.002554491
3-0196,monoCl,DZDNPDARHNGXAN-UHFFFAOYSA-N,c1ccc2c(c1)c(Cl)cc1c2ccc2c1cc1c(c2)ccc2c1cccc2,C26H15Cl,r2scan,362.859,15,26,1,-1459.817970117717,-1459.4755420384,0.0002214355,-1459.5415630335,8.607283275021,8.3639953756,0.0019682679,7.7771561444,0.3220350976,-5.215,-2.5871,2.6279,1.66528,371.84408,-0.11114 -0.64566 -0.00015,0.012942,0.003156,0.002537
3-0196,monoCl,DZDNPDARHNGXAN-UHFFFAOYSA-N,c1ccc2c(c1)c(Cl)cc1c2ccc2c1cc1c(c2)ccc2c1cccc2,C26H15Cl,d4tzvp,362.859,15,26,1,-1460.907866984299,-1460.5654389049998,0.0002214355,-1460.6314599001,8.487033682261,8.2437457826,0.0019682679,7.6569065529,0.3220350976,-7.6861,-0.232,7.4541,1.73692,352.32148,-0.11252 -0.67402 -0.00014,0.012942,0.003156,0.002537
3-0197,monoCl,DZUNTWGKAPJMPN-UHFFFAOYSA-N,c1ccc2c(c1)c1cc3ccc4c5c3c(c1c(c2)Cl)ccc5ccc4,C24H13Cl,xtb2,336.821,13,24,1,-62.614306666933,-62.314070536456,0.000210606167,-62.376862765254,9.977392688044,9.766856636007,0.001663305651,9.270942055014,0.281588147463,-9.864,-7.8772,1.986861624979,1.807,257.259006,0.015 0.683 -0.197,0.01464806,0.004775632,0.003665255
3-0197,monoCl,DZUNTWGKAPJMPN-UHFFFAOYSA-N,c1ccc2c(c1)c1cc3ccc4c5c3c(c1c(c2)Cl)ccc5ccc4,C24H13Cl,r2scan,336.821,13,24,1,-1382.417370083056,-1382.1104758424,0.0002041779,-1382.1713514811,7.865658786266,7.6484628036,0.0017848093,7.1163217612,0.2888385682,-5.0685,-2.7263,2.3422,1.69363,340.73919,0.04071 0.62951 -0.21455,0.014398,0.00473,0.003622
3-0197,monoCl,DZUNTWGKAPJMPN-UHFFFAOYSA-N,c1ccc2c(c1)c1cc3ccc4c5c3c(c1c(c2)Cl)ccc5ccc4,C24H13Cl,d4tzvp,336.821,13,24,1,-1383.418277609225,-1383.1113833685,0.0002041779,-1383.1722590072,7.753125277433,7.5359292945,0.0017848093,7.0037882534,0.2888385682,-7.4091,-0.4762,6.9329,1.72711,326.29684,0.09590 0.63779 -0.21383,0.014398,0.00473,0.003622
3-0198,monoCl,FBPDYHIXWPLORV-UHFFFAOYSA-N,c1ccc2c(c1)cc1c(c2)cc2c3c1c(Cl)cc1c3c(cc2)ccc1,C24H13Cl,xtb2,336.821,13,24,1,-62.608779579,-62.308929632158,0.000210716993,-62.371754903512,9.971865600111,9.761715731709,0.001663194825,9.265834193272,0.28117550026,-9.7252,-8.0596,1.665655010873,1.722,257.270775,-0.243 -0.606 0.182,0.01599291,0.004497198,0.003558609
3-0198,monoCl,FBPDYHIXWPLORV-UHFFFAOYSA-N,c1ccc2c(c1)cc1c(c2)cc2c3c1c(Cl)cc1c3c(cc2)ccc1,C24H13Cl,r2scan,336.821,13,24,1,-1382.41113434918,-1382.1045607136,0.0002043424,-1382.1654854041,7.85942305239,7.6425476748,0.0017846448,7.1104556842,0.2885026444,-4.8547,-2.9554,1.8993,1.52356,354.43174,-0.21996 -0.52348 0.19202,0.015696,0.004456,0.003518
3-0198,monoCl,FBPDYHIXWPLORV-UHFFFAOYSA-N,c1ccc2c(c1)cc1c(c2)cc2c3c1c(Cl)cc1c3c(cc2)ccc1,C24H13Cl,d4tzvp,336.821,13,24,1,-1383.408756085251,-1383.1021824497,0.0002043424,-1383.1631071402,7.743603753459,7.5267283757,0.0017846448,6.9946363864,0.2885026444,-7.1388,-0.7469,6.3919,1.58656,338.60126,-0.26730 -0.53034 0.19209,0.015696,0.004456,0.003518
3-0199,monoCl,FBYITHIUILPCOL-UHFFFAOYSA-N,c1ccc2c(c1)ccc1c2cc2c(c1)c1ccccc1c1c2cc(Cl)cc1,C26H15Cl,xtb2,362.859,15,26,1,-67.912152917333,-67.577449921833,0.000223695409,-67.644144708132,10.901680667842,10.666119864302,0.001839498715,10.11767332122,0.314499177632,-10.1672,-7.4939,2.673349091563,2.187,279.834713,0.015 -0.860 -0.000,0.008010897,0.004229937,0.002768243
3-0199,monoCl,FBYITHIUILPCOL-UHFFFAOYSA-N,c1ccc2c(c1)ccc1c2cc2c(c1)c1ccccc1c1c2cc(Cl)cc1,C26H15Cl,r2scan,362.859,15,26,1,-1459.819577216284,-1459.4778824791,0.0002268876,-1459.5455290112,8.608890373588,8.3663358163,0.0019628158,7.7811221221,0.3206900077,-5.4261,-2.4357,2.9904,1.98024,359.17204,0.00181 -0.77907 0.00003,0.00793,0.004202,0.002747
3-0199,monoCl,FBYITHIUILPCOL-UHFFFAOYSA-N,c1ccc2c(c1)ccc1c2cc2c(c1)c1ccccc1c1c2cc(Cl)cc1,C26H15Cl,d4tzvp,362.859,15,26,1,-1460.912515728823,-1460.5708209915997,0.0002268876,-1460.6384675236998,8.491682426785,8.2491278692,0.0019628158,7.6639141765,0.3206900077,-7.9636,-0.0039,7.9597,2.02328,341.6513,-0.02102 -0.79573 0.00005,0.00793,0.004202,0.002747
3-0200,monoCl,FCKPKCWKLCFRCB-UHFFFAOYSA-N,c1ccc2c(c1)cc1c(c2)c2c(cc1)c(Cl)c1c(c2)ccc2c1cccc2,C26H15Cl,xtb2,362.859,15,26,1,-67.899784698453,-67.564696957155,0.000226201988,-67.63213907979,10.889312448962,10.653366899624,0.001836992136,10.105667692878,0.314312119752,-9.9661,-7.6964,2.26973135367,1.763,279.897529,-0.333 0.599 -0.103,0.01676244,0.002939193,0.002523676
3-0200,monoCl,FCKPKCWKLCFRCB-UHFFFAOYSA-N,c1ccc2c(c1)cc1c(c2)c2c(cc1)c(Cl)c1c(c2)ccc2c1cccc2,C26H15Cl,r2scan,362.859,15,26,1,-1459.802215578693,-1459.4596117142,0.0002188063,-1459.5248488129,8.591528735997,8.3480650514,0.0019708971,7.7604419238,0.3225102233,-5.1973,-2.5988,2.5985,1.64019,388.02331,-0.33701 0.53145 -0.14277,0.016426,0.002914,0.002498
3-0200,monoCl,FCKPKCWKLCFRCB-UHFFFAOYSA-N,c1ccc2c(c1)cc1c(c2)c2c(cc1)c(Cl)c1c(c2)ccc2c1cccc2,C26H15Cl,d4tzvp,362.859,15,26,1,-1460.890514778667,-1460.5479109142,0.0002188063,-1460.6131480129,8.469681476629,8.2262177918,0.0019708971,7.6385946657,0.3225102233,-7.666,-0.2347,7.4313,1.67211,363.81587,-0.34712 0.54202 -0.13597,0.016426,0.002914,0.002498
3-0201,monoCl,FCOPAZFYAXOQRI-UHFFFAOYSA-N,c1c(Cl)cc2c(c1)c1c2c2ccccc2c2c1c1ccccc21,C22H11Cl,xtb2,310.783,11,22,1,-57.154200098453,-56.891029399042,0.000208059897,-56.953062457287,8.890844390166,8.707931655675,0.001476569615,8.267692423719,0.245314518314,-9.7226,-8.0753,1.647362493812,2.544,229.199955,0.987 0.166 -0.000,0.01315568,0.005005371,0.003625839
3-0201,monoCl,FCOPAZFYAXOQRI-UHFFFAOYSA-N,c1c(Cl)cc2c(c1)c1c2c2ccccc2c2c1c1ccccc21,C22H11Cl,r2scan,310.783,11,22,1,-1304.838627775554,-1304.5709971687,0.0002034301,-1304.6316498491,6.94589202467,6.7585177539,0.0015848409,6.2859972984,0.2499907747,-4.8127,-3.0208,1.7919,2.36048,320.97101,0.91457 0.16120 -0.00001,0.013033,0.004941,0.003583
3-0201,monoCl,FCOPAZFYAXOQRI-UHFFFAOYSA-N,c1c(Cl)cc2c(c1)c1c2c2ccccc2c2c1c1ccccc21,C22H11Cl,d4tzvp,310.783,11,22,1,-1305.752396766905,-1305.48476616,0.0002034301,-1305.5454188404,6.842925405359,6.6555511344,0.0015848409,6.18303068,0.2499907747,-7.2395,-0.6148,6.6247,2.32783,299.77761,0.90278 0.15397 -0.00002,0.013033,0.004941,0.003583
3-0202,monoCl,FCTLECIIPJXXLW-UHFFFAOYSA-N,Clc1cc2c(cc1)c1cccc3c1c(c2)c1cccc2c1c3ccc2,C24H13Cl,xtb2,336.821,13,24,1,-62.617719294656,-62.317285915081,0.000213233579,-62.380861506611,9.980805315767,9.770072014632,0.001660678239,9.274940796371,0.281562848909,-9.8529,-7.9434,1.909558561454,2.542,257.226416,-0.845 0.533 -0.053,0.01483411,0.004175582,0.003268337
3-0202,monoCl,FCTLECIIPJXXLW-UHFFFAOYSA-N,Clc1cc2c(cc1)c1cccc3c1c(c2)c1cccc2c1c3ccc2,C24H13Cl,r2scan,336.821,13,24,1,-1382.422143660979,-1382.1161589506,0.0002089502,-1382.1784574548,7.870432364189,7.6541459118,0.001780037,7.1234277349,0.2873199222,-4.9939,-2.8685,2.1254,2.33594,335.86339,-0.76320 0.50930 -0.05210,0.014694,0.004139,0.003239
3-0202,monoCl,FCTLECIIPJXXLW-UHFFFAOYSA-N,Clc1cc2c(cc1)c1cccc3c1c(c2)c1cccc2c1c3ccc2,C24H13Cl,d4tzvp,336.821,13,24,1,-1383.425079595534,-1383.1190948851,0.0002089502,-1383.1813933893,7.759927263742,7.5436408111,0.001780037,7.0129226355,0.2873199222,-7.3608,-0.5923,6.7685,2.31732,319.14862,-0.75277 0.51169 -0.05178,0.014694,0.004139,0.003239
3-0203,monoCl,FDBYOLPMOYIIIR-UHFFFAOYSA-N,c1c2cc3c(cc2c2c(c1Cl)cc1c(c2)c2ccccc2cc1)cccc3,C26H15Cl,xtb2,362.859,15,26,1,-67.908936822963,-67.573812549167,0.000227793318,-67.641729127004,10.898464573472,10.662482491636,0.001835400806,10.115257740092,0.314241950118,-10.0592,-7.6975,2.361729730657,2.128,279.879705,-0.033 -0.836 0.000,0.008824159,0.003749846,0.002631559
3-0203,monoCl,FDBYOLPMOYIIIR-UHFFFAOYSA-N,c1c2cc3c(cc2c2c(c1Cl)cc1c(c2)c2ccccc2cc1)cccc3,C26H15Cl,r2scan,362.859,15,26,1,-1459.815967958135,-1459.4738894123,0.0002211236,-1459.5398174264,8.605281115439,8.3623427495,0.0019685798,7.7754105373,0.3216944245,-5.2727,-2.593,2.6797,2.03475,378.78735,-0.01703 -0.80034 0.00004,0.008702,0.003732,0.002612
3-0203,monoCl,FDBYOLPMOYIIIR-UHFFFAOYSA-N,c1c2cc3c(cc2c2c(c1Cl)cc1c(c2)c2ccccc2cc1)cccc3,C26H15Cl,d4tzvp,362.859,15,26,1,-1460.90409718886,-1460.5620186431,0.0002211236,-1460.6279466572005,8.483263886822,8.2403255207,0.0019685798,7.65339331,0.3216944245,-7.7773,-0.2241,7.5532,2.00142,356.78352,-0.05997 -0.78512 0.00004,0.008702,0.003732,0.002612
3-0204,monoCl,FDLIEJFPWIGDAV-UHFFFAOYSA-N,c1ccc2c(c1)cc1c(c2)c2c(Cl)ccc3c2c2c1cccc2cc3,C24H13Cl,xtb2,336.821,13,24,1,-62.615746407079,-62.315424783896,0.000210912815,-62.378308439646,9.97883242819,9.768210883447,0.001662999003,9.272387729406,0.28166644045,-10.0808,-7.5348,2.545956031885,1.714,257.262832,-0.366 0.526 0.208,0.01096672,0.005942486,0.003948945
3-0204,monoCl,FDLIEJFPWIGDAV-UHFFFAOYSA-N,c1ccc2c(c1)cc1c(c2)c2c(Cl)ccc3c2c2c1cccc2cc3,C24H13Cl,r2scan,336.821,13,24,1,-1382.417753269284,-1382.110898908,0.0002043778,-1382.1718341496,7.866041972494,7.6488858692,0.0017846094,7.1168044297,0.2887788217,-5.3045,-2.4368,2.8677,1.52689,323.34115,-0.33218 0.44841 0.22235,0.010776,0.005893,0.003902
3-0204,monoCl,FDLIEJFPWIGDAV-UHFFFAOYSA-N,c1ccc2c(c1)cc1c(c2)c2c(Cl)ccc3c2c2c1cccc2cc3,C24H13Cl,d4tzvp,336.821,13,24,1,-1383.421231059244,-1383.1143766979,0.0002043778,-1383.1753119395,7.756078727452,7.5389226239,0.0017846094,7.0068411857,0.2887788217,-7.8327,0.0025,7.8352,1.59231,310.60513,-0.36595 0.45411 0.22869,0.010776,0.005893,0.003902
3-0205,monoCl,FDQSOVDKDFSJIQ-UHFFFAOYSA-N,c1ccc2c(c1)ccc1c2ccc2c1cc1c(c2)c(Cl)ccc1,C22H13Cl,xtb2,312.799,13,22,1,-58.311462046998,-58.024335668699,0.000207252181,-58.086127906599,9.261140810839,9.05899345422,0.001560253381,8.593803907729,0.269112394439,-9.9607,-7.8142,2.146447544357,2.059,239.882928,-0.537 0.607 -0.000,0.02545935,0.00377274,0.003285824
3-0205,monoCl,FDQSOVDKDFSJIQ-UHFFFAOYSA-N,c1ccc2c(c1)ccc1c2ccc2c1cc1c(c2)c(Cl)ccc1,C22H13Cl,r2scan,312.799,13,22,1,-1306.20440438985,-1305.9110180038,0.0002014321,-1305.971074973,7.317125267596,7.1087161786,0.0016741427,6.6095703865,0.2759326294,-5.1694,-2.7062,2.4632,1.92831,311.75221,-0.49266 0.57691 -0.00001,0.025181,0.003739,0.003256
3-0205,monoCl,FDQSOVDKDFSJIQ-UHFFFAOYSA-N,c1ccc2c(c1)ccc1c2ccc2c1cc1c(c2)c(Cl)ccc1,C22H13Cl,d4tzvp,312.799,13,22,1,-1307.133238325316,-1306.8398519393002,0.0002014321,-1306.8999089085,7.21370790909,7.0052988199,0.0016741427,6.5061530291,0.2759326294,-7.639,-0.344,7.295,1.89456,298.43161,-0.45431 0.59090 -0.00000,0.025181,0.003739,0.003256
3-0206,monoCl,FEWYRZCKCDKTAO-UHFFFAOYSA-N,c1cc2cc3cc(Cl)ccc3cc2c2c1ccc1c2ccc2c1cccc2,C26H15Cl,xtb2,362.859,15,26,1,-67.902714242997,-67.567557040852,0.000225754304,-67.634865686648,10.892241993506,10.656226983321,0.00183743982,10.108394299736,0.314503630046,-10.0001,-7.7731,2.226947399928,2.531,279.818831,0.924 0.370 -0.032,0.01296676,0.002918543,0.002418962
3-0206,monoCl,FEWYRZCKCDKTAO-UHFFFAOYSA-N,c1cc2cc3cc(Cl)ccc3cc2c2c1ccc1c2ccc2c1cccc2,C26H15Cl,r2scan,362.859,15,26,1,-1459.808477225703,-1459.4656075498,0.0002177932,-1459.5305425913,8.597790383007,8.354060887,0.0019719102,7.7661357022,0.3229438916,-5.2023,-2.7013,2.501,2.33544,374.75344,0.86679 0.30257 -0.03653,0.01307,0.002855,0.002376
3-0206,monoCl,FEWYRZCKCDKTAO-UHFFFAOYSA-N,c1cc2cc3cc(Cl)ccc3cc2c2c1ccc1c2ccc2c1cccc2,C26H15Cl,d4tzvp,362.859,15,26,1,-1460.895521987631,-1460.5526523117,0.0002177932,-1460.6175873532,8.474688685593,8.2309591893,0.0019719102,7.643034006,0.3229438916,-7.6847,-0.3352,7.3495,2.3296,354.17982,0.86035 0.31425 -0.03223,0.01307,0.002855,0.002376
3-0207,monoCl,FEYDMZHPFMFENB-UHFFFAOYSA-N,c1ccc2c(c1)ccc1c2cc2c(c1)cc1c(c2)cc2c(c1)c(Cl)ccc2,C26H15Cl,xtb2,362.859,15,26,1,-67.89499276637,-67.560586012955,0.000227247928,-67.628339982792,10.884520516879,10.649255955424,0.001835946196,10.10186859588,0.313548346863,-9.5861,-8.2435,1.342674288578,2.106,279.873352,0.532 0.635 -0.000,0.02089252,0.002231162,0.002015881
3-0207,monoCl,FEYDMZHPFMFENB-UHFFFAOYSA-N,c1ccc2c(c1)ccc1c2cc2c(c1)cc1c(c2)cc2c(c1)c(Cl)ccc2,C26H15Cl,r2scan,362.859,15,26,1,-1459.799767154079,-1459.4581329788,0.0002202815,-1459.5238099051,8.589080311383,8.346586316,0.0019694219,7.759403016,0.3213776192,-4.6768,-3.2539,1.4229,2.02814,417.13103,0.49768 0.62369 -0.00004,0.020642,0.002213,0.001999
3-0207,monoCl,FEYDMZHPFMFENB-UHFFFAOYSA-N,c1ccc2c(c1)ccc1c2cc2c(c1)cc1c(c2)cc2c(c1)c(Cl)ccc2,C26H15Cl,d4tzvp,362.859,15,26,1,-1460.880689411004,-1460.5390552357,0.0002202815,-1460.604732162,8.459856108966,8.2173621133,0.0019694219,7.6301788148,0.3213776192,-6.9624,-1.0615,5.9009,1.9448,390.45786,0.43872 0.62685 -0.00004,0.020642,0.002213,0.001999
3-0208,monoCl,FFAGVUZOXPGZKZ-UHFFFAOYSA-N,c1ccc2c(c1)c1c(cc2)cc2c(c1)cc1c(c2)ccc2c1cccc2Cl,C26H15Cl,xtb2,362.859,15,26,1,-67.906027225999,-67.570991879384,0.000227462885,-67.638809938665,10.895554976508,10.659661821853,0.001835731239,10.112338551753,0.314173255552,-9.8506,-7.9034,1.947189303105,2.356,279.863567,-0.889 -0.263 0.000,0.01944735,0.002357085,0.002102281
3-0208,monoCl,FFAGVUZOXPGZKZ-UHFFFAOYSA-N,c1ccc2c(c1)c1c(cc2)cc2c(c1)cc1c(c2)ccc2c1cccc2Cl,C26H15Cl,r2scan,362.859,15,26,1,-1459.812615051619,-1459.4705528303,0.0002205455,-1459.5363084844,8.601928208923,8.3590061675,0.0019691579,7.7719015953,0.3217628732,-5.0231,-2.8821,2.141,2.2638,393.5263,-0.84436 -0.28334 0.00006,0.019225,0.002338,0.002085
3-0208,monoCl,FFAGVUZOXPGZKZ-UHFFFAOYSA-N,c1ccc2c(c1)c1c(cc2)cc2c(c1)cc1c(c2)ccc2c1cccc2Cl,C26H15Cl,d4tzvp,362.859,15,26,1,-1460.899675379913,-1460.5576131586,0.0002205455,-1460.6233688127,8.478842077875,8.2359200362,0.0019691579,7.6488154655,0.3217628732,-7.4355,-0.5653,6.8702,2.18252,368.35838,-0.81075 -0.28279 0.00007,0.019225,0.002338,0.002085
3-0209,monoCl,FFAHUPWZUXTSES-UHFFFAOYSA-N,c1ccc2c(c1)c1c3cccc(c3c3c4c1c(c2)ccc4ccc3)Cl,C24H13Cl,xtb2,336.821,13,24,1,-62.606404213746,-62.306035948264,0.000209816949,-62.368592871633,9.969490234857,9.758822047815,0.001664094869,9.262672161393,0.281792417053,-9.8753,-7.7665,2.108823977724,1.823,257.225897,-0.594 -0.306 0.261,0.01030586,0.00669475,0.004180953
3-0209,monoCl,FFAHUPWZUXTSES-UHFFFAOYSA-N,c1ccc2c(c1)c1c3cccc(c3c3c4c1c(c2)ccc4ccc3)Cl,C24H13Cl,r2scan,336.821,13,24,1,-1382.406179307891,-1382.0988869365,0.0002031563,-1382.1594579754,7.854468011101,7.6368738977,0.0017858309,7.1044282555,0.2893910294,-5.0695,-2.6323,2.4372,1.57907,321.27113,-0.51188 -0.24361 0.25412,0.010195,0.006606,0.004132
3-0209,monoCl,FFAHUPWZUXTSES-UHFFFAOYSA-N,c1ccc2c(c1)c1c3cccc(c3c3c4c1c(c2)ccc4ccc3)Cl,C24H13Cl,d4tzvp,336.821,13,24,1,-1383.408580549604,-1383.1012881782,0.0002031563,-1383.1618592171,7.743428217812,7.5258341042,0.0017858309,6.9933884633,0.2893910294,-7.4573,-0.3337,7.1236,1.60856,309.98613,-0.52180 -0.23813 0.26742,0.010195,0.006606,0.004132
3-0210,monoCl,FFULBNUVHYEYRE-UHFFFAOYSA-N,c1ccc2c(c1)c1ccc(c3c1c1c2c2ccccc2cc1cc3)Cl,C24H13Cl,xtb2,336.821,13,24,1,-62.615078668155,-62.314604472064,0.000210483481,-62.377360121929,9.978164689266,9.767390571615,0.001663428337,9.271439411689,0.281878939945,-9.8997,-7.8182,2.081537739617,2.213,257.236298,-0.628 0.603 0.001,0.0112527,0.005745892,0.003892962
3-0210,monoCl,FFULBNUVHYEYRE-UHFFFAOYSA-N,c1ccc2c(c1)c1ccc(c3c1c1c2c2ccccc2cc1cc3)Cl,C24H13Cl,r2scan,336.821,13,24,1,-1382.419001926716,-1382.1117188869,0.000203693,-1382.1724499697,7.867290629926,7.6497058481,0.0017852942,7.1174202498,0.2893040287,-5.1148,-2.6994,2.4154,2.03167,325.68542,-0.57595 0.55422 0.00184,0.01111,0.005688,0.003842
3-0210,monoCl,FFULBNUVHYEYRE-UHFFFAOYSA-N,c1ccc2c(c1)c1ccc(c3c1c1c2c2ccccc2cc1cc3)Cl,C24H13Cl,d4tzvp,336.821,13,24,1,-1383.421226730075,-1383.1139436903,0.000203693,-1383.1746747731,7.756074398283,7.5384896163,0.0017852942,7.0062040193,0.2893040287,-7.5043,-0.4132,7.0911,2.04575,313.5151,-0.57349 0.56468 0.00427,0.01111,0.005688,0.003842
3-0211,monoCl,FGSYLFCCJOSESB-UHFFFAOYSA-N,c1ccc2c(c1)c1c2c2c3ccccc3c2c2c1cccc2Cl,C22H11Cl,xtb2,310.783,11,22,1,-57.154466394051,-56.891162250781,0.000207521851,-56.953034890792,8.891110685764,8.708064507414,0.001477107661,8.267664857224,0.245458523036,-9.6905,-8.0602,1.630242730483,1.695,229.314978,0.609 -0.271 0.000,0.0114856,0.006915134,0.004316375