id,subset,key,smiles,formula,level,mwt,nH,nC,nCl,E,H,S,G,dE,dH,dS,dG,zpe,homo,lumo,gap,Mu,alpha,tMu,rotA,rotB,rotC
3-0230,monoCl,FLUZVXPCVAKYIB-UHFFFAOYSA-N,c1ccc2c(c1)cc1c(c2)ccc2c1c(Cl)cc1c2c2ccccc2cc1,C26H15Cl,xtb2,362.859,15,26,1,-67.895705232696,-67.560582003008,0.000224659369,-67.627564193825,10.885232983205,10.649251945477,0.001838534755,10.101092806913,0.314517389125,-9.9101,-7.7296,2.180448418265,1.885,279.85786,0.449 -0.586 -0.066,0.01374841,0.003441436,0.002843647
3-0230,monoCl,FLUZVXPCVAKYIB-UHFFFAOYSA-N,c1ccc2c(c1)cc1c(c2)ccc2c1c(Cl)cc1c2c2ccccc2cc1,C26H15Cl,r2scan,362.859,15,26,1,-1459.796998969151,-1459.4539747123,0.0002166269,-1459.5185620225,8.586312126455,8.3424280495,0.0019730765,7.7541551334,0.3231922551,-5.1061,-2.6516,2.4545,1.70962,374.86464,0.41603 -0.51432 -0.12161,0.013531,0.003397,0.002803
3-0230,monoCl,FLUZVXPCVAKYIB-UHFFFAOYSA-N,c1ccc2c(c1)cc1c(c2)ccc2c1c(Cl)cc1c2c2ccccc2cc1,C26H15Cl,d4tzvp,362.859,15,26,1,-1460.884499750475,-1460.5414754935998,0.0002166269,-1460.6060628038,8.463666448437,8.2197823712,0.0019730765,7.6315094566,0.3231922551,-7.5756,-0.292,7.2836,1.7587,354.45368,0.45567 -0.50735 -0.11705,0.013531,0.003397,0.002803
3-0231,monoCl,FLXRSXCSRQCQMY-UHFFFAOYSA-N,c1cc2cc3c(Cl)cccc3cc2c2c1ccc1c2c2ccccc2cc1,C26H15Cl,xtb2,362.859,15,26,1,-67.899332052214,-67.564396507366,0.000224395263,-67.631299955042,10.888859802723,10.653066449835,0.001838798861,10.10482856813,0.314333195741,-9.9384,-7.754,2.184406173465,2.188,279.849383,0.790 -0.224 -0.258,0.01044479,0.004416151,0.003320545
3-0231,monoCl,FLXRSXCSRQCQMY-UHFFFAOYSA-N,c1cc2cc3c(Cl)cccc3cc2c2c1ccc1c2c2ccccc2cc1,C26H15Cl,r2scan,362.859,15,26,1,-1459.80203054804,-1459.4591184638,0.0002160848,-1459.5235441446,8.591343705344,8.347571801,0.0019736186,7.7591372555,0.3231320968,-5.1176,-2.705,2.4126,2.06612,347.67688,0.73401 -0.26708 -0.22504,0.010358,0.004316,0.003252
3-0231,monoCl,FLXRSXCSRQCQMY-UHFFFAOYSA-N,c1cc2cc3c(Cl)cccc3cc2c2c1ccc1c2c2ccccc2cc1,C26H15Cl,d4tzvp,362.859,15,26,1,-1460.888792306145,-1460.5458802219,0.0002160848,-1460.6103059027,8.467959004107,8.2241870995,0.0019736186,7.6357525555,0.3231320968,-7.6045,-0.3344,7.2701,2.0504,333.74938,0.72355 -0.26654 -0.23695,0.010358,0.004316,0.003252
3-0232,monoCl,FMOIXSSHQONELE-UHFFFAOYSA-N,c1ccc2c(c1Cl)cc1c(c2)ccc2c1ccc1c2cccc1,C22H13Cl,xtb2,312.799,13,22,1,-58.311574583217,-58.024452706505,0.000207428415,-58.086297488513,9.261253347058,9.059110492026,0.001560077147,8.593973489643,0.269107435424,-9.958,-7.8068,2.151256729852,1.791,239.875145,-0.166 -0.685 0.000,0.0210647,0.004211755,0.00350996
3-0232,monoCl,FMOIXSSHQONELE-UHFFFAOYSA-N,c1ccc2c(c1Cl)cc1c(c2)ccc2c1ccc1c2cccc1,C22H13Cl,r2scan,312.799,13,22,1,-1306.204461252728,-1305.9110604927,0.0002013997,-1305.9711078212,7.317182130474,7.1087586675,0.0016741751,6.6096032347,0.2759443639,-5.1675,-2.7006,2.4669,1.65935,309.61373,-0.14686 -0.63609 0.00002,0.020778,0.004178,0.003479
3-0232,monoCl,FMOIXSSHQONELE-UHFFFAOYSA-N,c1ccc2c(c1Cl)cc1c(c2)ccc2c1ccc1c2cccc1,C22H13Cl,d4tzvp,312.799,13,22,1,-1307.133340211077,-1306.8399394511,0.0002013997,-1306.8999867796,7.213809794851,7.0053863317,0.0016741751,6.5062309002,0.2759443639,-7.6369,-0.3385,7.2984,1.65911,296.77758,-0.09907 -0.64517 0.00002,0.020778,0.004178,0.003479
3-0233,monoCl,FMTNTXGEHPFKQB-UHFFFAOYSA-N,c1ccc2-c3c(-c2c1)cc1-c2ccccc2-c2c1c3c(Cl)cc2,C22H11Cl,xtb2,310.783,11,22,1,-57.22628493373,-56.962308990704,0.00020389627,-57.023100663664,8.962929225443,8.779211247337,0.001480733242,8.337730630096,0.246565754186,-9.8392,-8.1977,1.641526562548,1.168,231.587465,0.263 -0.377 0.000,0.01512423,0.005812905,0.004199032
3-0233,monoCl,FMTNTXGEHPFKQB-UHFFFAOYSA-N,c1ccc2-c3c(-c2c1)cc1-c2ccccc2-c2c1c3c(Cl)cc2,C22H11Cl,r2scan,310.783,11,22,1,-1304.918038523232,-1304.6493135436,0.0001992929,-1304.7087327226,7.025302772348,6.8368341288,0.0015889781,6.3630801719,0.2515729795,-4.9587,-3.1478,1.8109,1.05081,307.78497,0.26579 -0.31665 0.00000,0.01501,0.005738,0.004151
3-0233,monoCl,FMTNTXGEHPFKQB-UHFFFAOYSA-N,c1ccc2-c3c(-c2c1)cc1-c2ccccc2-c2c1c3c(Cl)cc2,C22H11Cl,d4tzvp,310.783,11,22,1,-1305.835170676578,-1305.566445697,0.0001992929,-1305.625864876,6.925699315032,6.7372306714,0.0015889781,6.2634767156,0.2515729795,-7.4402,-0.8139,6.6263,1.38286,291.03993,0.42918 -0.33436 -0.00000,0.01501,0.005738,0.004151
3-0234,monoCl,FNAFHVAGBGPITD-UHFFFAOYSA-N,c1ccc2c(c1)cc1c(c2)c2ccccc2c2c1c1ccccc1cc2Cl,C26H15Cl,xtb2,362.859,15,26,1,-67.896999275376,-67.561648027467,0.000225343405,-67.62883416363,10.886527025885,10.650317969936,0.001837850719,10.102362776718,0.314696674633,-9.9773,-7.6984,2.278820475369,1.971,279.859977,-0.434 0.514 0.385,0.007795881,0.005319848,0.003427013
3-0234,monoCl,FNAFHVAGBGPITD-UHFFFAOYSA-N,c1ccc2c(c1)cc1c(c2)c2ccccc2c2c1c1ccccc1cc2Cl,C26H15Cl,r2scan,362.859,15,26,1,-1459.796867187041,-1459.4537365002,0.0002168685,-1459.5183958528,8.586180344345,8.3421898374,0.0019728349,7.7539889637,0.3232292777,-5.1812,-2.6229,2.5583,1.8032,354.80259,-0.35959 0.47235 0.38840,0.007706,0.005253,0.003391
3-0234,monoCl,FNAFHVAGBGPITD-UHFFFAOYSA-N,c1ccc2c(c1)cc1c(c2)c2ccccc2c2c1c1ccccc1cc2Cl,C26H15Cl,d4tzvp,362.859,15,26,1,-1460.887022309575,-1460.5438916228,0.0002168685,-1460.6085509754,8.466189007537,8.2221985004,0.0019728349,7.6339976282,0.3232292777,-7.6601,-0.2303,7.4298,1.8338,339.04832,-0.33795 0.50500 0.38894,0.007706,0.005253,0.003391
3-0235,monoCl,FNFQYZZLNNFEIL-UHFFFAOYSA-N,c1ccc2c(c1)ccc1c2c2cc3cccc(c3cc2cc1)Cl,C22H13Cl,xtb2,312.799,13,22,1,-58.305939015778,-58.018877785786,0.00020532645,-58.080095866978,9.255617779619,9.053535571307,0.001562179112,8.587771868108,0.269298858837,-9.9367,-7.7828,2.153943360461,2.093,239.855318,-0.689 0.409 0.190,0.01747095,0.004879343,0.003901153
3-0235,monoCl,FNFQYZZLNNFEIL-UHFFFAOYSA-N,c1ccc2c(c1)ccc1c2c2cc3cccc(c3cc2cc1)Cl,C22H13Cl,r2scan,312.799,13,22,1,-1306.196787851013,-1305.9029641533,0.0001985939,-1305.9621749224,7.309508728759,7.1006623281,0.0016769809,6.6006703359,0.2767238657,-5.1367,-2.7248,2.4119,1.96027,301.37096,-0.64237 0.39450 0.16278,0.017412,0.004791,0.003833
3-0235,monoCl,FNFQYZZLNNFEIL-UHFFFAOYSA-N,c1ccc2c(c1)ccc1c2c2cc3cccc(c3cc2cc1)Cl,C22H13Cl,d4tzvp,312.799,13,22,1,-1307.124538257331,-1306.8307145596,0.0001985939,-1306.8899253287,7.205007841105,6.9961614402,0.0016769809,6.4961694493,0.2767238657,-7.6186,-0.369,7.2496,1.9259,289.40075,-0.61828 0.40347 0.17041,0.017412,0.004791,0.003833
3-0236,monoCl,FNWZICNFYZGTQJ-UHFFFAOYSA-N,c1ccc2c(c1)cc1c(c2Cl)c2cccc3c2c2c1cccc2cc3,C24H13Cl,xtb2,336.821,13,24,1,-62.613564967247,-62.313209979062,0.000210681084,-62.376024544137,9.976650988358,9.765996078613,0.001663230734,9.270103833897,0.281693713661,-10.0574,-7.5959,2.461559005298,1.6,257.281069,-0.096 0.587 -0.206,0.01267104,0.005686519,0.004000289
3-0236,monoCl,FNWZICNFYZGTQJ-UHFFFAOYSA-N,c1ccc2c(c1)cc1c(c2Cl)c2cccc3c2c2c1cccc2cc3,C24H13Cl,r2scan,336.821,13,24,1,-1382.414437839526,-1382.1073779086,0.0002041484,-1382.1682447566,7.862726542736,7.6453648698,0.0017848388,7.1132150367,0.2890238956,-5.3188,-2.5769,2.7419,1.3798,321.97682,-0.04676 0.49231 -0.22388,0.012524,0.005606,0.003956
3-0236,monoCl,FNWZICNFYZGTQJ-UHFFFAOYSA-N,c1ccc2c(c1)cc1c(c2Cl)c2cccc3c2c2c1cccc2cc3,C24H13Cl,d4tzvp,336.821,13,24,1,-1383.418381396712,-1383.1113214658,0.0002041484,-1383.1721883138,7.75322906492,7.5358673918,0.0017848388,7.00371756,0.2890238956,-7.8448,-0.1612,7.6836,1.424,309.51668,-0.04126 0.51005 -0.22806,0.012524,0.005606,0.003956
3-0237,monoCl,FOKZPQAOMSRGBX-UHFFFAOYSA-N,c1ccc2-c3c(-c2c1)cc1-c2ccccc2-c2c1c3ccc2Cl,C22H11Cl,xtb2,310.783,11,22,1,-57.226160666609,-56.962150726254,0.000203646849,-57.022868034166,8.962804958322,8.779052982887,0.001480982663,8.337498000598,0.246622782236,-9.8567,-8.2059,1.650788057011,1.908,231.549197,-0.676 -0.327 0.000,0.01615841,0.005240428,0.003957084
3-0237,monoCl,FOKZPQAOMSRGBX-UHFFFAOYSA-N,c1ccc2-c3c(-c2c1)cc1-c2ccccc2-c2c1c3ccc2Cl,C22H11Cl,r2scan,310.783,11,22,1,-1304.918014369422,-1304.6492509004,0.0001994862,-1304.7087277215,7.025278618538,6.8367714856,0.0015887848,6.3630751708,0.2516109759,-4.9683,-3.132,1.8363,1.71116,310.52256,-0.61176 -0.28100 -0.00001,0.015983,0.005183,0.003914
3-0237,monoCl,FOKZPQAOMSRGBX-UHFFFAOYSA-N,c1ccc2-c3c(-c2c1)cc1-c2ccccc2-c2c1c3ccc2Cl,C22H11Cl,d4tzvp,310.783,11,22,1,-1305.835126731273,-1305.5663632623,0.0001994862,-1305.6258400834,6.925655369727,6.7371482367,0.0015887848,6.263451923,0.2516109759,-7.4659,-0.7964,6.6695,1.57491,292.98113,-0.53581 -0.31116 -0.00001,0.015983,0.005183,0.003914
3-0238,monoCl,FOKZRHDIILVDGK-UHFFFAOYSA-N,c1ccc2c(c1)c1cc3ccc4c(c3cc1cc2)cc(cc4)Cl,C22H13Cl,xtb2,312.799,13,22,1,-58.316481701564,-58.029346266842,0.000207442475,-58.091195240651,9.266160465405,9.064004052363,0.001560063087,8.598871241781,0.2691688155,-10.0943,-7.5976,2.496670261077,2.273,239.876427,-0.602 0.662 -0.000,0.0218092,0.003784978,0.003225239
3-0238,monoCl,FOKZRHDIILVDGK-UHFFFAOYSA-N,c1ccc2c(c1)c1cc3ccc4c(c3cc1cc2)cc(cc4)Cl,C22H13Cl,r2scan,312.799,13,22,1,-1306.209571496708,-1305.9163883088,0.0002016952,-1305.9765237335,7.322292374454,7.1140864836,0.0016738796,6.615019147,0.2757114557,-5.3149,-2.4754,2.8395,2.11929,312.25945,-0.53782 0.63713 -0.00003,0.021573,0.003755,0.003198
3-0238,monoCl,FOKZRHDIILVDGK-UHFFFAOYSA-N,c1ccc2c(c1)c1cc3ccc4c(c3cc1cc2)cc(cc4)Cl,C22H13Cl,d4tzvp,312.799,13,22,1,-1307.139681921229,-1306.8464987333,0.0002016952,-1306.906634158,7.220151505003,7.0119456139,0.0016738796,6.5128782786,0.2757114557,-7.8351,-0.0631,7.772,2.11885,297.10309,-0.52435 0.64804 -0.00003,0.021573,0.003755,0.003198
3-0239,monoCl,FOQRPDJXHDSTHI-UHFFFAOYSA-N,c1ccc2c(c1)cc1c(c2)cc(c2c1ccc1c2c2ccccc2cc1)Cl,C26H15Cl,xtb2,362.859,15,26,1,-67.897045530973,-67.562221372334,0.000224689885,-67.629212661525,10.886573281482,10.650891314803,0.001838504239,10.102741274613,0.314172050631,-9.9503,-7.7695,2.180819694617,1.72,279.925405,-0.349 0.449 -0.367,0.01567807,0.003344489,0.002921873
3-0239,monoCl,FOQRPDJXHDSTHI-UHFFFAOYSA-N,c1ccc2c(c1)cc1c(c2)cc(c2c1ccc1c2c2ccccc2cc1)Cl,C26H15Cl,r2scan,362.859,15,26,1,-1459.796473266442,-1459.4539496659,0.0002168118,-1459.518592093,8.585786423746,8.3424030031,0.0019728916,7.7541852039,0.3226312433,-5.1395,-2.697,2.4425,1.61772,374.03776,-0.37326 0.37912 -0.34930,0.015205,0.003307,0.002899
3-0239,monoCl,FOQRPDJXHDSTHI-UHFFFAOYSA-N,c1ccc2c(c1)cc1c(c2)cc(c2c1ccc1c2c2ccccc2cc1)Cl,C26H15Cl,d4tzvp,362.859,15,26,1,-1460.883820243478,-1460.541296643,0.0002168118,-1460.6059390701,8.46298694144,8.2196035206,0.0019728916,7.6313857229,0.3226312433,-7.6177,-0.3461,7.2716,1.72924,353.63941,-0.43944 0.38703 -0.34632,0.015205,0.003307,0.002899
3-0240,monoCl,FPQOVTOGONLVLQ-UHFFFAOYSA-N,c1cc2c(c(c1)Cl)c1ccc3c4c1c(-c1cccc(c41)cc3)c2,C22H11Cl,xtb2,310.783,11,22,1,-57.29219110463,-57.027151171819,0.000197488,-57.086032218931,9.028835396343,8.844053428452,0.001487141512,8.400662185363,0.248271522045,-10.2416,-7.8044,2.437139069375,1.829,234.428768,0.221 -0.685 0.000,0.0177589,0.005988113,0.004478134
3-0240,monoCl,FPQOVTOGONLVLQ-UHFFFAOYSA-N,c1cc2c(c(c1)Cl)c1ccc3c4c1c(-c1cccc(c41)cc3)c2,C22H11Cl,r2scan,310.783,11,22,1,-1304.992073036093,-1304.7219398669,0.0001943509,-1304.7798855831,7.099337285209,6.9094604521,0.0015939201,6.4342330324,0.2535961876,-5.5126,-2.7435,2.7691,1.78744,291.88906,0.15248 -0.68649 0.00002,0.017581,0.005912,0.004424
3-0240,monoCl,FPQOVTOGONLVLQ-UHFFFAOYSA-N,c1cc2c(c(c1)Cl)c1ccc3c4c1c(-c1cccc(c41)cc3)c2,C22H11Cl,d4tzvp,310.783,11,22,1,-1305.91137425746,-1305.6412410883,0.0001943509,-1305.6991868045,7.001902895914,6.8120260627,0.0015939201,6.3367986441,0.2535961876,-8.022,-0.3694,7.6526,1.83904,280.9074,0.15310 -0.70713 0.00002,0.017581,0.005912,0.004424
3-0241,monoCl,FQCNTJNNNQYYGX-UHFFFAOYSA-N,c1ccc2c(c1)cc1c(c2)c2cc(Cl)cc3c2c2c1cccc2cc3,C24H13Cl,xtb2,336.821,13,24,1,-62.623046223075,-62.32273845899,0.000212753886,-62.386171030236,9.986132244186,9.775524558541,0.001661157932,9.280250319996,0.281461808773,-10.1558,-7.6002,2.555570991831,2.412,257.23837,0.182 0.931 0.000,0.009325347,0.005615359,0.003504866
3-0241,monoCl,FQCNTJNNNQYYGX-UHFFFAOYSA-N,c1ccc2c(c1)cc1c(c2)c2cc(Cl)cc3c2c2c1cccc2cc3,C24H13Cl,r2scan,336.821,13,24,1,-1382.429492262543,-1382.1228502979,0.0002072325,-1382.1846366641,7.877780965753,7.6608372591,0.0017817547,7.1296069442,0.2882943132,-5.3869,-2.5354,2.8515,2.24665,327.53758,0.17684 0.86600 0.00366,0.009239,0.005573,0.003476
3-0241,monoCl,FQCNTJNNNQYYGX-UHFFFAOYSA-N,c1ccc2c(c1)cc1c(c2)c2cc(Cl)cc3c2c2c1cccc2cc3,C24H13Cl,d4tzvp,336.821,13,24,1,-1383.432466414236,-1383.1258244496,0.0002072325,-1383.1876108158,7.767314082444,7.5503703756,0.0017817547,7.019140062,0.2882943132,-7.9343,-0.0938,7.8405,2.24383,314.07821,0.15740 0.86862 0.00400,0.009239,0.005573,0.003476
3-0242,monoCl,FQEPUCFIXOXAGS-UHFFFAOYSA-N,c1ccc2c(c1)cc(c1c2c2-c3cccc4c3c(-c2cc1)ccc4)Cl,C24H13Cl,xtb2,336.821,13,24,1,-62.59602341949,-62.295939626566,0.000211379686,-62.35896248003,9.959109440601,9.748725726117,0.001662532132,9.25304176979,0.281385729073,-10.112,-7.9829,2.129049301975,2.545,257.124821,0.598 -0.796 -0.109,0.0118957,0.005400316,0.003820756
3-0242,monoCl,FQEPUCFIXOXAGS-UHFFFAOYSA-N,c1ccc2c(c1)cc(c1c2c2-c3cccc4c3c(-c2cc1)ccc4)Cl,C24H13Cl,r2scan,336.821,13,24,1,-1382.397291102332,-1382.0902530754,0.0002045301,-1382.1512337127,7.845579805542,7.6282400366,0.0017844571,7.0962039928,0.288997029,-5.3696,-2.9328,2.4368,2.35922,318.58869,0.58065 -0.72095 -0.06756,0.011786,0.005317,0.003766
3-0242,monoCl,FQEPUCFIXOXAGS-UHFFFAOYSA-N,c1ccc2c(c1)cc(c1c2c2-c3cccc4c3c(-c2cc1)ccc4)Cl,C24H13Cl,d4tzvp,336.821,13,24,1,-1383.400567948358,-1383.0935299215,0.0002045301,-1383.1545105588002,7.735415616566,7.5180758475,0.0017844571,6.986039805,0.288997029,-7.9735,-0.5942,7.3793,2.19566,305.42373,0.49534 -0.70431 -0.06916,0.011786,0.005317,0.003766
3-0243,monoCl,FRPDBODRLRRYDU-UHFFFAOYSA-N,c1c(Cl)c2cccc3c2c(c1)cc1c3cc2c3c1cccc3ccc2,C24H13Cl,xtb2,336.821,13,24,1,-62.60515208159,-62.305281527,0.00021218081,-62.368543235477,9.968238102701,9.758067626551,0.001661731008,9.262622525237,0.281032692532,-9.4978,-8.3163,1.181496340907,2.356,257.266745,0.927 -0.001 0.016,0.01911533,0.003788885,0.003170754
3-0243,monoCl,FRPDBODRLRRYDU-UHFFFAOYSA-N,c1c(Cl)c2cccc3c2c(c1)cc1c3cc2c3c1cccc3ccc2,C24H13Cl,r2scan,336.821,13,24,1,-1382.408074733147,-1382.1014226019,0.0002055887,-1382.1627188655,7.856363436357,7.6394095631,0.0017833985,7.1076891456,0.2884862069,-4.5876,-3.252,1.3356,2.11693,383.75431,0.83214 -0.00409 0.03414,0.018948,0.003749,0.003147
3-0243,monoCl,FRPDBODRLRRYDU-UHFFFAOYSA-N,c1c(Cl)c2cccc3c2c(c1)cc1c3cc2c3c1cccc3ccc2,C24H13Cl,d4tzvp,336.821,13,24,1,-1383.402446156711,-1383.0957940255,0.0002055887,-1383.1570902891,7.737293824919,7.5203399515,0.0017833985,6.9886195353,0.2884862069,-6.7689,-1.1635,5.6054,2.19559,364.59665,0.86305 -0.00940 0.03467,0.018948,0.003749,0.003147
3-0244,monoCl,FSDYDWABGJBOTN-UHFFFAOYSA-N,c1ccc2-c3c4c(-c2c1)c1ccccc1cc4ccc3Cl,C20H11Cl,xtb2,286.761,11,20,1,-53.001961079587,-52.750179455663,0.000193946136,-52.808004496089,8.32519811403,8.148953398266,0.00138427712,7.736231173891,0.235668498063,-10.0401,-8.2081,1.832051959991,2.087,217.230005,0.812 -0.123 -0.000,0.0158232,0.008191199,0.00539722
3-0244,monoCl,FSDYDWABGJBOTN-UHFFFAOYSA-N,c1ccc2-c3c4c(-c2c1)c1ccccc1cc4ccc3Cl,C20H11Cl,r2scan,286.761,11,20,1,-1228.790392834472,-1228.5334075364,0.0001893788,-1228.5898708119,6.562089258124,6.3806393352,0.0014854798,5.9377433946,0.2412088967,-5.2585,-3.1277,2.1308,2.03122,268.97416,0.79698 -0.05852 -0.00002,0.015612,0.008139,0.00535
3-0244,monoCl,FSDYDWABGJBOTN-UHFFFAOYSA-N,c1ccc2-c3c4c(-c2c1)c1ccccc1cc4ccc3Cl,C20H11Cl,d4tzvp,286.761,11,20,1,-1229.632801434513,-1229.3758161364,0.0001893788,-1229.4322794119,6.468951988533,6.2875020654,0.0014854798,5.8446061259,0.2412088967,-7.7199,-0.8611,6.8588,2.02503,261.37753,0.79383 -0.06742 -0.00002,0.015612,0.008139,0.00535
3-0245,monoCl,FSGZSNITJMYFCP-UHFFFAOYSA-N,c1cc2c(Cl)ccc3c2c(c1)c1cc2ccccc2c2c1c3ccc2,C24H13Cl,xtb2,336.821,13,24,1,-62.617296960947,-62.316765776069,0.000212787171,-62.380208271239,9.980382982058,9.76955187562,0.001661124647,9.274287560999,0.281664909476,-9.814,-7.9512,1.862817063838,2.283,257.253323,0.887 0.138 0.026,0.01675776,0.004273925,0.003416453
3-0245,monoCl,FSGZSNITJMYFCP-UHFFFAOYSA-N,c1cc2c(Cl)ccc3c2c(c1)c1cc2ccccc2c2c1c3ccc2,C24H13Cl,r2scan,336.821,13,24,1,-1382.421322641376,-1382.1150291513,0.0002080755,-1382.1770668472,7.869611344586,7.6530161125,0.0017809117,7.1220371273,0.287715147,-4.9612,-2.8822,2.079,2.1023,335.97735,0.81705 0.12467 0.03115,0.016618,0.004229,0.003383
3-0245,monoCl,FSGZSNITJMYFCP-UHFFFAOYSA-N,c1cc2c(Cl)ccc3c2c(c1)c1cc2ccccc2c2c1c3ccc2,C24H13Cl,d4tzvp,336.821,13,24,1,-1383.424634520435,-1383.1183410303,0.0002080755,-1383.1803787262002,7.759482188643,7.5428869563,0.0017809117,7.0119079724,0.287715147,-7.3272,-0.6247,6.7025,2.10389,319.24372,0.81630 0.13355 0.03055,0.016618,0.004229,0.003383
3-0246,monoCl,FSLZHICRAIZPNZ-UHFFFAOYSA-N,c1ccc2c(c1)c1cc3ccc4c5c3c(c1cc2)c(Cl)cc5ccc4,C24H13Cl,xtb2,336.821,13,24,1,-62.614508798648,-62.314265675281,0.00021064967,-62.377070874286,9.977594819759,9.767051774832,0.001663262148,9.271150164046,0.281591997889,-9.8766,-7.8948,1.981732835845,1.797,257.266207,-0.114 0.675 0.176,0.01433237,0.004835809,0.003666245
3-0246,monoCl,FSLZHICRAIZPNZ-UHFFFAOYSA-N,c1ccc2c(c1)c1cc3ccc4c5c3c(c1cc2)c(Cl)cc5ccc4,C24H13Cl,r2scan,336.821,13,24,1,-1382.417615299933,-1382.1107656806,0.0002043444,-1382.1716909713,7.865904003143,7.6487526418,0.0017846428,7.1166612514,0.2887772035,-5.0782,-2.7388,2.3394,1.66328,340.6627,-0.13416 0.61362 0.18350,0.014079,0.004793,0.003625
3-0246,monoCl,FSLZHICRAIZPNZ-UHFFFAOYSA-N,c1ccc2c(c1)c1cc3ccc4c5c3c(c1cc2)c(Cl)cc5ccc4,C24H13Cl,d4tzvp,336.821,13,24,1,-1383.41847323921,-1383.1116236199,0.0002043444,-1383.1725489106,7.753320907418,7.5361695459,0.0017846428,7.0040781568,0.2887772035,-7.4188,-0.495,6.9238,1.71535,326.42994,-0.18705 0.62100 0.18656,0.014079,0.004793,0.003625
3-0247,monoCl,FTEGOMXAAPBZRN-UHFFFAOYSA-N,c1ccc2-c3c4c(-c2c1)cc1cc(Cl)ccc1c4c1c(c3)cccc1,C24H13Cl,xtb2,336.821,13,24,1,-62.602885356289,-62.3027340083,0.000213378343,-62.366352761203,9.9659713774,9.755520107851,0.001660533475,9.260432050963,0.281327385292,-10.2345,-7.7676,2.466862034649,2.337,257.139032,-0.360 0.846 0.016,0.008849671,0.005476476,0.003405297
3-0247,monoCl,FTEGOMXAAPBZRN-UHFFFAOYSA-N,c1ccc2-c3c4c(-c2c1)cc1cc(Cl)ccc1c4c1c(c3)cccc1,C24H13Cl,r2scan,336.821,13,24,1,-1382.40628430685,-1382.0996714571,0.0002067652,-1382.161318489,7.85457301006,7.6376584183,0.001782222,7.1062887691,0.2883262375,-5.4927,-2.6631,2.8296,2.2236,332.30936,-0.36369 0.79561 0.00656,0.008745,0.005426,0.003367
3-0247,monoCl,FTEGOMXAAPBZRN-UHFFFAOYSA-N,c1ccc2-c3c4c(-c2c1)cc1cc(Cl)ccc1c4c1c(c3)cccc1,C24H13Cl,d4tzvp,336.821,13,24,1,-1383.410110101043,-1383.1034972512,0.0002067652,-1383.1651442831,7.744957769251,7.5280431772,0.001782222,6.9966735293,0.2883262375,-8.0378,-0.3249,7.7129,2.28457,316.54801,-0.41154 0.79902 0.00651,0.008745,0.005426,0.003367
3-0248,monoCl,FTGLCIGGLZJFAC-UHFFFAOYSA-N,c1ccc2c(c1)c1c(cc2)ccc2c1c1c(cc2Cl)ccc2c1cccc2,C26H15Cl,xtb2,362.859,15,26,1,-67.901488051232,-67.566492971256,0.000223867345,-67.633239020128,10.891015801741,10.655162913725,0.001839326779,10.106767633216,0.314413008568,-10.0801,-7.5121,2.567985064988,2.189,279.877858,-0.123 0.849 -0.075,0.008754187,0.006288165,0.004160991
3-0248,monoCl,FTGLCIGGLZJFAC-UHFFFAOYSA-N,c1ccc2c(c1)c1c(cc2)ccc2c1c1c(cc2Cl)ccc2c1cccc2,C26H15Cl,r2scan,362.859,15,26,1,-1459.800971147591,-1459.4579569376,0.0002150109,-1459.5220624404,8.590284304895,8.3464102748,0.0019746925,7.7576555513,0.323266646,-5.3451,-2.4899,2.8552,2.17204,330.12483,-0.12344 0.84193 -0.07831,0.008394,0.006221,0.004098
3-0248,monoCl,FTGLCIGGLZJFAC-UHFFFAOYSA-N,c1ccc2c(c1)c1c(cc2)ccc2c1c1c(cc2Cl)ccc2c1cccc2,C26H15Cl,d4tzvp,362.859,15,26,1,-1460.889903824272,-1460.5468896143002,0.0002150109,-1460.6109951171002,8.469070522234,8.2251964919,0.0019746925,7.6364417699,0.323266646,-7.9251,-0.1136,7.8115,2.10187,318.87756,-0.10225 0.81677 -0.07894,0.008394,0.006221,0.004098