id,subset,key,smiles,formula,level,mwt,nH,nC,nCl,E,H,S,G,dE,dH,dS,dG,zpe,homo,lumo,gap,Mu,alpha,tMu,rotA,rotB,rotC
3-0004,monoCl,ACUBYHDBKUXXGV-UHFFFAOYSA-N,c1ccc2c(c1)cc1c(c2)cc2c(c1Cl)c1ccccc1cc2,C22H13Cl,d4tzvp,312.799,13,22,1,-1307.11158434579,-1306.8182412312,0.0001993671,-1306.877682533,7.192053929564,6.9836881118,0.0016762077,6.4839266536,0.2760798403,-7.3204,-0.6859,6.6345,1.38777,308.20701,-0.13095 -0.50381 0.16467,0.022744,0.004439,0.003753
3-0005,monoCl,AEGMRCSRMIMUPQ-UHFFFAOYSA-N,c1c2ccc3c(c2c2c(c1)ccc1c2cc(Cl)cc1)ccc1c3cccc1,C26H15Cl,xtb2,362.859,15,26,1,-67.903801817625,-67.568652546473,0.0002248138,-67.635680781053,10.893329568134,10.657322488942,0.001838380324,10.109209394141,0.314534391789,-10.0666,-7.5009,2.565694017041,1.997,279.841335,-0.288 0.624 -0.380,0.008710083,0.005272635,0.003579097
3-0005,monoCl,AEGMRCSRMIMUPQ-UHFFFAOYSA-N,c1c2ccc3c(c2c2c(c1)ccc1c2cc(Cl)cc1)ccc1c3cccc1,C26H15Cl,r2scan,362.859,15,26,1,-1459.807038932274,-1459.4640503895,0.0002162673,-1459.5285304777,8.596352089578,8.3525037267,0.0019734361,7.7641235886,0.3231539748,-5.3612,-2.4075,2.9537,1.74786,344.68401,-0.27266 0.52387 -0.35224,0.008612,0.005128,0.003499
3-0005,monoCl,AEGMRCSRMIMUPQ-UHFFFAOYSA-N,c1c2ccc3c(c2c2c(c1)ccc1c2cc(Cl)cc1)ccc1c3cccc1,C26H15Cl,d4tzvp,362.859,15,26,1,-1460.895829259523,-1460.5528407167,0.0002162673,-1460.6173208049,8.474995957485,8.2311475943,0.0019734361,7.6427674577,0.3231539748,-7.905,-0.0115,7.8935,1.84118,330.89448,-0.30791 0.54597 -0.36305,0.008612,0.005128,0.003499
3-0006,monoCl,AEKCOXCQDXXHTJ-UHFFFAOYSA-N,c1ccc2c(c1)cc1c(c2)c(Cl)c2c(c1)ccc1c2ccc2c1cccc2,C26H15Cl,xtb2,362.859,15,26,1,-67.89224783084,-67.557442942197,0.000226111836,-67.62485818601,10.881775581349,10.646112884666,0.001837082288,10.098386799098,0.31402878527,-9.674,-8.0624,1.611591769011,1.44,279.903682,-0.096 0.538 -0.150,0.02089588,0.002800622,0.002496411
3-0006,monoCl,AEKCOXCQDXXHTJ-UHFFFAOYSA-N,c1ccc2c(c1)cc1c(c2)c(Cl)c2c(c1)ccc1c2ccc2c1cccc2,C26H15Cl,r2scan,362.859,15,26,1,-1459.793657773203,-1459.4511362247,0.0002180266,-1459.5161408477,8.582970930507,8.3395895619,0.0019716768,7.7517339586,0.3224777628,-4.837,-3.0453,1.7917,1.33762,396.15114,-0.12925 0.48243 -0.16581,0.020659,0.002765,0.002465
3-0006,monoCl,AEKCOXCQDXXHTJ-UHFFFAOYSA-N,c1ccc2c(c1)cc1c(c2)c(Cl)c2c(c1)ccc1c2ccc2c1cccc2,C26H15Cl,d4tzvp,362.859,15,26,1,-1460.878648614188,-1460.5361270657,0.0002180266,-1460.6011316887,8.45781531215,8.2144339433,0.0019716768,7.6265783415,0.3224777628,-7.2059,-0.8069,6.399,1.42055,373.61426,-0.15446 0.50958 -0.16973,0.020659,0.002765,0.002465
3-0007,monoCl,AEKXGSRGKRWBIC-UHFFFAOYSA-N,c1ccc2-c3c(-c2c1)c(Cl)c1-c2ccccc2-c2c1c3ccc2,C22H11Cl,xtb2,310.783,11,22,1,-57.225532682596,-56.961437545964,0.000203863391,-57.022219416092,8.962176974309,8.778339802597,0.001480766121,8.336849382524,0.246649281736,-9.9196,-8.2191,1.700522107434,1.943,231.386484,-0.173 0.745 0.000,0.01581162,0.006056775,0.004379261
3-0007,monoCl,AEKXGSRGKRWBIC-UHFFFAOYSA-N,c1ccc2-c3c(-c2c1)c(Cl)c1-c2ccccc2-c2c1c3ccc2,C22H11Cl,r2scan,310.783,11,22,1,-1304.9172191978,-1304.6484649391,0.0002001067,-1304.7081267409,7.024483446916,6.8359855243,0.0015881643,6.3624741902,0.2514717713,-5.0331,-3.1475,1.8856,1.83283,305.46669,-0.14723 0.70588 0.00002,0.015743,0.005972,0.00433
3-0007,monoCl,AEKXGSRGKRWBIC-UHFFFAOYSA-N,c1ccc2-c3c(-c2c1)c(Cl)c1-c2ccccc2-c2c1c3ccc2,C22H11Cl,d4tzvp,310.783,11,22,1,-1305.834383745633,-1305.5656294869,0.0002001067,-1305.6252912887,6.924912384087,6.7364144613,0.0015881643,6.2629031283,0.2514717713,-7.5298,-0.795,6.7348,1.81846,289.59499,-0.04873 0.71376 0.00002,0.015743,0.005972,0.00433
3-0008,monoCl,AENJRGQYWRLDBJ-UHFFFAOYSA-N,c1cccc2c1cc1c3c2cccc3c2c3c1cccc3ccc2Cl,C24H13Cl,xtb2,336.821,13,24,1,-62.611577880446,-62.311213166398,0.000211064326,-62.374141995316,9.974663901557,9.763999265949,0.001662847492,9.268221285076,0.281682630357,-9.8042,-7.9186,1.885685181431,1.756,257.259654,0.163 -0.640 0.204,0.01233321,0.005492071,0.003921039
3-0008,monoCl,AENJRGQYWRLDBJ-UHFFFAOYSA-N,c1cccc2c1cc1c3c2cccc3c2c3c1cccc3ccc2Cl,C24H13Cl,r2scan,336.821,13,24,1,-1382.412048368426,-1382.10504219,0.0002042158,-1382.1659291326,7.860337071636,7.6430291512,0.0017847714,7.1108994127,0.2889357919,-4.98,-2.825,2.155,1.54375,328.53375,0.10530 -0.55935 0.21191,0.012228,0.005417,0.003875
3-0008,monoCl,AENJRGQYWRLDBJ-UHFFFAOYSA-N,c1cccc2c1cc1c3c2cccc3c2c3c1cccc3ccc2Cl,C24H13Cl,d4tzvp,336.821,13,24,1,-1383.415773205689,-1383.1087670272998,0.0002042158,-1383.1696539699,7.750620873897,7.5333129533,0.0017847714,7.0011832161,0.2889357919,-7.3762,-0.5451,6.8311,1.61726,313.78696,0.08755 -0.59135 0.21788,0.012228,0.005417,0.003875
3-0009,monoCl,AFJXGZPWYLHEGQ-UHFFFAOYSA-N,c1cc2-c3cccc4c3c(-c2c2c1cc1c(c2)cccc1)ccc4Cl,C24H13Cl,xtb2,336.821,13,24,1,-62.595589767548,-62.295914765723,0.000213823366,-62.359666202181,9.958675788659,9.748700865274,0.001660088452,9.253745491941,0.280717790277,-9.7866,-8.1823,1.604395118502,1.486,257.190857,0.395 0.431 0.000,0.01561198,0.00380479,0.003059227
3-0009,monoCl,AFJXGZPWYLHEGQ-UHFFFAOYSA-N,c1cc2-c3cccc4c3c(-c2c2c1cc1c(c2)cccc1)ccc4Cl,C24H13Cl,r2scan,336.821,13,24,1,-1382.399090155428,-1382.0932184936,0.0002083645,-1382.1553423551,7.847378858638,7.6312054548,0.0017806227,7.1003126352,0.2873529388,-4.9775,-3.1353,1.8422,1.43921,340.64247,0.36604 0.43199 0.00001,0.015467,0.003772,0.003032
3-0009,monoCl,AFJXGZPWYLHEGQ-UHFFFAOYSA-N,c1cc2-c3cccc4c3c(-c2c2c1cc1c(c2)cccc1)ccc4Cl,C24H13Cl,d4tzvp,336.821,13,24,1,-1383.399497199601,-1383.0936255378,0.0002083645,-1383.1557493993,7.734344867809,7.5181714638,0.0017806227,6.9872786455,0.2873529388,-7.4645,-0.8783,6.5862,1.66017,323.2269,0.45223 0.47126 0.00002,0.015467,0.003772,0.003032
3-0010,monoCl,AFQXYBPPRNVVRQ-UHFFFAOYSA-N,c1ccc2c(c1)cc1c(c2)ccc2c1ccc1c2c2ccccc2c(c1)Cl,C26H15Cl,xtb2,362.859,15,26,1,-67.901668859515,-67.566445146159,0.000225385793,-67.633643920369,10.891196610024,10.655115088628,0.001837808331,10.107172533457,0.314555687907,-9.9349,-7.7246,2.210243046675,2.187,279.845051,-0.754 -0.385 -0.154,0.01803067,0.00273324,0.00241462
3-0010,monoCl,AFQXYBPPRNVVRQ-UHFFFAOYSA-N,c1ccc2c(c1)cc1c(c2)ccc2c1ccc1c2c2ccccc2c(c1)Cl,C26H15Cl,r2scan,362.859,15,26,1,-1459.806700738239,-1459.4637100114,0.0002176589,-1459.5286050008,8.596013895543,8.3521633486,0.0019720445,7.7641981117,0.3230619752,-5.1458,-2.6453,2.5005,1.94556,379.81281,-0.65936 -0.36288 -0.13945,0.017827,0.002702,0.002383
3-0010,monoCl,AFQXYBPPRNVVRQ-UHFFFAOYSA-N,c1ccc2c(c1)cc1c(c2)ccc2c1ccc1c2c2ccccc2c(c1)Cl,C26H15Cl,d4tzvp,362.859,15,26,1,-1460.894225343926,-1460.5512346171,0.0002176589,-1460.6161296065,8.473392041888,8.2295414947,0.0019720445,7.6415762593,0.3230619752,-7.6193,-0.2967,7.3226,1.97789,358.05818,-0.68006 -0.35315 -0.13534,0.017827,0.002702,0.002383
3-0011,monoCl,AFUIQMUGFUTVML-UHFFFAOYSA-N,c1cc2ccc3c(c2cc1Cl)c1ccccc1c1c3cccc1,C22H13Cl,xtb2,312.799,13,22,1,-58.309744015917,-58.022246093572,0.000206221269,-58.083730965047,9.259422779758,9.056903879093,0.001561284293,8.591406966177,0.269658650728,-10.1464,-7.5236,2.622835876336,2.2,239.832977,-0.594 -0.541 -0.320,0.0140963,0.005852168,0.004379187
3-0011,monoCl,AFUIQMUGFUTVML-UHFFFAOYSA-N,c1cc2ccc3c(c2cc1Cl)c1ccccc1c1c3cccc1,C22H13Cl,r2scan,312.799,13,22,1,-1306.199907265868,-1305.905729094,0.0001993631,-1305.9651692122,7.312628143614,7.1034272688,0.0016762117,6.6036646257,0.276965958,-5.4187,-2.377,3.0417,2.07615,289.44982,-0.54353 -0.53283 -0.29638,0.014013,0.005771,0.0043
3-0011,monoCl,AFUIQMUGFUTVML-UHFFFAOYSA-N,c1cc2ccc3c(c2cc1Cl)c1ccccc1c1c3cccc1,C22H13Cl,d4tzvp,312.799,13,22,1,-1307.13203862022,-1306.8378604483,0.0001993631,-1306.8973005665,7.212508203994,7.0033073289,0.0016762117,6.5035446871,0.276965958,-7.9673,0.0435,8.0108,2.10156,279.27839,-0.53861 -0.54807 -0.30516,0.014013,0.005771,0.0043
3-0012,monoCl,AGFKRNDMUYCSRA-UHFFFAOYSA-N,Clc1ccc2c(c1)cc1c3c2-c2cccc4c2c3c(cc1)cc4,C22H11Cl,xtb2,310.783,11,22,1,-57.288729973963,-57.024109166781,0.000198413516,-57.083266156724,9.025374265676,8.841011423414,0.001486215996,8.397896123156,0.247806294248,-10.1158,-8.2001,1.915666874327,2.468,234.374501,0.969 0.054 0.000,0.01797958,0.005186309,0.004025214
3-0012,monoCl,AGFKRNDMUYCSRA-UHFFFAOYSA-N,Clc1ccc2c(c1)cc1c3c2-c2cccc4c2c3c(cc1)cc4,C22H11Cl,r2scan,310.783,11,22,1,-1304.989987607168,-1304.7202368295,0.0001948817,-1304.7783407982,7.097251856284,6.9077574147,0.0015933893,6.4326882475,0.253174519,-5.3429,-3.1678,2.1751,2.16506,296.80172,0.85138 0.02615 0.00012,0.01784,0.005133,0.003986
3-0012,monoCl,AGFKRNDMUYCSRA-UHFFFAOYSA-N,Clc1ccc2c(c1)cc1c3c2-c2cccc4c2c3c(cc1)cc4,C22H11Cl,d4tzvp,310.783,11,22,1,-1305.905827980725,-1305.636077203,0.0001948817,-1305.6941811717,6.996356619179,6.8068621774,0.0015933893,6.3317930113,0.253174519,-7.8683,-0.904,6.9643,2.18909,286.00254,0.86000 0.04608 0.00012,0.01784,0.005133,0.003986
3-0013,monoCl,AGIFZIMEEOLUAO-UHFFFAOYSA-N,c1ccc2c(c1)cc(c1c2cc2-c3cccc4c3c(-c2c1)ccc4)Cl,C24H13Cl,xtb2,336.821,13,24,1,-62.605306057611,-62.305296918139,0.000213383713,-62.368917272202,9.968392078722,9.75808301769,0.001660528105,9.262996561962,0.281108241714,-10.1549,-7.8452,2.309716478025,2.096,257.154835,-0.224 0.793 0.000,0.01343248,0.004322807,0.003270351
3-0013,monoCl,AGIFZIMEEOLUAO-UHFFFAOYSA-N,c1ccc2c(c1)cc(c1c2cc2-c3cccc4c3c(-c2c1)ccc4)Cl,C24H13Cl,r2scan,336.821,13,24,1,-1382.408936423108,-1382.102814726,0.0002078992,-1382.164799858,7.857225126318,7.6408016872,0.001781088,7.1097701381,0.2876572933,-5.3904,-2.7714,2.619,2.00933,336.46596,-0.27028 0.74288 -0.00004,0.013279,0.004282,0.003238
3-0013,monoCl,AGIFZIMEEOLUAO-UHFFFAOYSA-N,c1ccc2c(c1)cc(c1c2cc2-c3cccc4c3c(-c2c1)ccc4)Cl,C24H13Cl,d4tzvp,336.821,13,24,1,-1383.412701264866,-1383.1065795678,0.0002078992,-1383.1685646998,7.747548933074,7.5311254938,0.001781088,7.000093946,0.2876572933,-7.9227,-0.4216,7.5011,1.93167,318.53084,-0.18690 0.73662 -0.00004,0.013279,0.004282,0.003238
3-0014,monoCl,AGPRJOZSTWBIAD-UHFFFAOYSA-N,c1ccc2c(c1)ccc1c2cc2c(c1Cl)c1c(cc2)ccc2c1cccc2,C26H15Cl,xtb2,362.859,15,26,1,-67.898816593285,-67.563813710069,0.000224454224,-67.630734736989,10.888344343794,10.652483652538,0.0018387399,10.104263350077,0.314371505061,-9.9273,-7.6914,2.235831913052,1.505,279.93497,0.204 0.447 0.329,0.01442983,0.00375679,0.003153699
3-0014,monoCl,AGPRJOZSTWBIAD-UHFFFAOYSA-N,c1ccc2c(c1)ccc1c2cc2c(c1Cl)c1c(cc2)ccc2c1cccc2,C26H15Cl,r2scan,362.859,15,26,1,-1459.798481426658,-1459.4556810373,0.0002163671,-1459.5201908845,8.587794583962,8.3441343745,0.0019733363,7.7557839954,0.3229530331,-5.1658,-2.6663,2.4995,1.44808,364.41453,0.27953 0.37549 0.32471,0.01419,0.003684,0.003117
3-0014,monoCl,AGPRJOZSTWBIAD-UHFFFAOYSA-N,c1ccc2c(c1)ccc1c2cc2c(c1Cl)c1c(cc2)ccc2c1cccc2,C26H15Cl,d4tzvp,362.859,15,26,1,-1460.88724662387,-1460.5444462345,0.0002163671,-1460.6089560817,8.466413321832,8.2227531121,0.0019733363,7.6344027345,0.3229530331,-7.6656,-0.3356,7.33,1.53157,345.72257,0.30786 0.40647 0.32105,0.01419,0.003684,0.003117
3-0015,monoCl,AGRGLUMAFAUZGW-UHFFFAOYSA-N,c1ccc2-c3c4c(-c2c1)c1ccc2c(c1cc4ccc3)cc(cc2)Cl,C24H13Cl,xtb2,336.821,13,24,1,-62.599607688764,-62.299697350054,0.000215128106,-62.3638377949,9.962693709875,9.752483449605,0.001658783712,9.25791708466,0.280876596373,-10.0819,-8.0873,1.994594559189,1.744,257.13369,-0.574 0.375 -0.002,0.01524832,0.00394318,0.003132997
3-0015,monoCl,AGRGLUMAFAUZGW-UHFFFAOYSA-N,c1ccc2-c3c4c(-c2c1)c1ccc2c(c1cc4ccc3)cc(cc2)Cl,C24H13Cl,r2scan,336.821,13,24,1,-1382.403017966612,-1382.0970985834,0.0002096705,-1382.1596118574,7.851306669822,7.6350855446,0.0017793167,7.1045821375,0.2872774086,-5.3285,-3.0393,2.2892,1.41335,334.97077,-0.44426 0.33438 -0.00085,0.015113,0.003908,0.003105
3-0015,monoCl,AGRGLUMAFAUZGW-UHFFFAOYSA-N,c1ccc2-c3c4c(-c2c1)c1ccc2c(c1cc4ccc3)cc(cc2)Cl,C24H13Cl,d4tzvp,336.821,13,24,1,-1383.406170381433,-1383.1002509982002,0.0002096705,-1383.1627642722,7.741018049641,7.5247969242,0.0017793167,6.9942935184,0.2872774086,-7.7792,-0.7526,7.0266,1.58911,320.22918,-0.50865 0.36351 -0.00090,0.015113,0.003908,0.003105
3-0016,monoCl,AGXRKZHTXRGYHX-UHFFFAOYSA-N,c1ccc2-c3c(-c2c1)cc1c(c3)c2c(c(c1)Cl)ccc1c2cccc1,C24H13Cl,xtb2,336.821,13,24,1,-62.531188959108,-62.231828073622,0.0002159081,-62.296201073517,9.894274980219,9.684614173173,0.001658003718,9.190280363277,0.28023533089,-10.0187,-7.548,2.470682570065,2.331,254.422146,-0.447 0.801 0.007,0.0108592,0.004571815,0.003273918
3-0016,monoCl,AGXRKZHTXRGYHX-UHFFFAOYSA-N,c1ccc2-c3c(-c2c1)cc1c(c3)c2c(c(c1)Cl)ccc1c2cccc1,C24H13Cl,r2scan,336.821,13,24,1,-1382.325512959457,-1382.0196388409,0.000208619,-1382.0818385842,7.773801662667,7.5576258021,0.0017803682,7.0268088643,0.287353094,-5.1995,-2.4781,2.7214,2.27911,341.83449,-0.46817 0.76456 -0.01541,0.010728,0.004501,0.003224
3-0016,monoCl,AGXRKZHTXRGYHX-UHFFFAOYSA-N,c1ccc2-c3c(-c2c1)cc1c(c3)c2c(c(c1)Cl)ccc1c2cccc1,C24H13Cl,d4tzvp,336.821,13,24,1,-1383.328588544118,-1383.0227144255,0.000208619,-1383.0849141688002,7.663436212326,7.4472603515,0.0017803682,6.916443415,0.287353094,-7.7213,-0.0441,7.6772,2.30305,321.6826,-0.49362 0.75964 -0.01578,0.010728,0.004501,0.003224
3-0017,monoCl,AHPIMBLEQPOUGR-UHFFFAOYSA-N,c1c2c(cc3c(c2)cccc3)c2-c3c4c(-c2c1)cccc4cc(c3)Cl,C24H13Cl,xtb2,336.821,13,24,1,-62.594743405314,-62.295249979659,0.000213886171,-62.359020141463,9.957829426425,9.74803607921,0.001660025647,9.253099431223,0.280525887054,-9.8172,-8.217,1.600243630614,2.029,257.154686,-0.076 0.794 0.000,0.01165677,0.004521202,0.003257677
3-0017,monoCl,AHPIMBLEQPOUGR-UHFFFAOYSA-N,c1c2c(cc3c(c2)cccc3)c2-c3c4c(-c2c1)cccc4cc(c3)Cl,C24H13Cl,r2scan,336.821,13,24,1,-1382.398225021272,-1382.0925731884,0.0002087454,-1382.1548106183,7.846513724482,7.6305601496,0.0017802418,7.0997808984,0.2870974091,-5.0149,-3.1618,1.8531,1.97809,337.28724,-0.06115 0.77582 0.00006,0.011538,0.004485,0.00323
3-0017,monoCl,AHPIMBLEQPOUGR-UHFFFAOYSA-N,c1c2c(cc3c(c2)cccc3)c2-c3c4c(-c2c1)cccc4cc(c3)Cl,C24H13Cl,d4tzvp,336.821,13,24,1,-1383.398659353242,-1383.0930075202998,0.0002087454,-1383.1552449502,7.73350702145,7.5175534463,0.0017802418,6.9867741964,0.2870974091,-7.498,-0.8881,6.6099,2.05395,320.93566,-0.03069 0.80749 0.00007,0.011538,0.004485,0.00323
3-0018,monoCl,AIVVVQPPLYTEFJ-UHFFFAOYSA-N,c1ccc2c(c1)cc1c3c2c2cccc4c2c(c3ccc1)c(Cl)cc4,C24H13Cl,xtb2,336.821,13,24,1,-62.600889750337,-62.30088241484,0.000209528572,-62.363353358683,9.963975771448,9.753668514391,0.001664383246,9.257432648443,0.281467275847,-9.5759,-8.1224,1.453431239339,1.76,257.249295,-0.318 -0.560 0.253,0.01117262,0.006283827,0.004277474
3-0018,monoCl,AIVVVQPPLYTEFJ-UHFFFAOYSA-N,c1ccc2c(c1)cc1c3c2c2cccc4c2c(c3ccc1)c(Cl)cc4,C24H13Cl,r2scan,336.821,13,24,1,-1382.399197864173,-1382.0921101782,0.0002024148,-1382.1524601513,7.847486567383,7.6300971394,0.0017865724,7.0974304314,0.2892429222,-4.7108,-3.0418,1.669,1.50937,330.75275,-0.23248 -0.49166 0.23843,0.011059,0.006187,0.004223
3-0018,monoCl,AIVVVQPPLYTEFJ-UHFFFAOYSA-N,c1ccc2c(c1)cc1c3c2c2cccc4c2c(c3ccc1)c(Cl)cc4,C24H13Cl,d4tzvp,336.821,13,24,1,-1383.397992430979,-1383.090904745,0.0002024148,-1383.1512547180998,7.732840099187,7.515450671,0.0017865724,6.9827839643,0.2892429222,-6.9974,-0.8564,6.141,1.55454,318.4691,-0.23520 -0.50464 0.25311,0.011059,0.006187,0.004223
3-0019,monoCl,AIZHOAHWYXWWEC-UHFFFAOYSA-N,c1ccc2c(c1)ccc1c2ccc2c1c1cc(Cl)ccc1c1c2cccc1,C26H15Cl,xtb2,362.859,15,26,1,-67.90661137725,-67.57091747586,0.00022672721,-67.638516193519,10.896139127759,10.659587418329,0.001836466914,10.112044806607,0.314946262714,-10.1475,-7.4517,2.695868594662,2.194,279.814035,-0.103 -0.833 -0.202,0.008396158,0.00446542,0.003011529
3-0019,monoCl,AIZHOAHWYXWWEC-UHFFFAOYSA-N,c1ccc2c(c1)ccc1c2ccc2c1c1cc(Cl)ccc1c1c2cccc1,C26H15Cl,r2scan,362.859,15,26,1,-1459.811391177236,-1459.4680144926,0.0002183687,-1459.5331211225,8.60070433454,8.3564678298,0.0019713347,7.7687142334,0.3233394893,-5.4603,-2.3285,3.1318,2.0636,353.98315,-0.09926 -0.78009 -0.20182,0.008303,0.004405,0.002965
3-0019,monoCl,AIZHOAHWYXWWEC-UHFFFAOYSA-N,c1ccc2c(c1)ccc1c2ccc2c1c1cc(Cl)ccc1c1c2cccc1,C26H15Cl,d4tzvp,362.859,15,26,1,-1460.9033444258,-1460.5599677412,0.0002183687,-1460.6250743711,8.482511123762,8.2382746188,0.0019713347,7.6505210239,0.3233394893,-8.012,0.1003,8.1123,2.08358,338.16613,-0.11961 -0.78411 -0.20692,0.008303,0.004405,0.002965
3-0020,monoCl,AKCLPOVVJDIRHJ-UHFFFAOYSA-N,c1ccc2-c3c4c(-c2c1)cccc4c1c(c3)ccc2c1cc(Cl)cc2,C24H13Cl,xtb2,336.821,13,24,1,-62.601134658556,-62.30100809295,0.000212316735,-62.364310327431,9.964220679667,9.753794192501,0.001661595083,9.258389617191,0.281358115051,-10.2714,-7.8532,2.418170896533,1.952,257.120817,-0.331 0.639 -0.267,0.01617635,0.003997445,0.003277744
3-0020,monoCl,AKCLPOVVJDIRHJ-UHFFFAOYSA-N,c1ccc2-c3c4c(-c2c1)cccc4c1c(c3)ccc2c1cc(Cl)cc2,C24H13Cl,r2scan,336.821,13,24,1,-1382.404166683872,-1382.0973250613,0.0002058523,-1382.1586999123,7.852455387082,7.6353120225,0.0017831349,7.1036701924,0.288682365,-5.5585,-2.8205,2.738,1.89901,329.85115,-0.29243 0.63363 -0.26680,0.016149,0.003941,0.003228
3-0020,monoCl,AKCLPOVVJDIRHJ-UHFFFAOYSA-N,c1ccc2-c3c4c(-c2c1)cccc4c1c(c3)ccc2c1cc(Cl)cc2,C24H13Cl,d4tzvp,336.821,13,24,1,-1383.407996489643,-1383.101154867,0.0002058523,-1383.162529718,7.742844157851,7.525700793,0.0017831349,6.9940589642,0.288682365,-8.0947,-0.4968,7.5979,1.99986,313.75599,-0.33790 0.65552 -0.27416,0.016149,0.003941,0.003228
3-0021,monoCl,ALQYMMBOSNTGGH-UHFFFAOYSA-N,Clc1ccc2c(c1)ccc1c2ccc2-c3c4c(-c12)cccc4ccc3,C24H13Cl,xtb2,336.821,13,24,1,-62.601729761833,-62.30169261829,0.000214176548,-62.365549356135,9.964815782944,9.754478717841,0.00165973527,9.259628645895,0.281039927675,-10.1926,-7.9558,2.236856628123,3.014,257.116475,-1.180 -0.118 0.000,0.02305711,0.003127901,0.002754262
3-0021,monoCl,ALQYMMBOSNTGGH-UHFFFAOYSA-N,Clc1ccc2c(c1)ccc1c2ccc2-c3c4c(-c12)cccc4ccc3,C24H13Cl,r2scan,336.821,13,24,1,-1382.405808021455,-1382.0997206072,0.0002090048,-1382.1620353863,7.854096724665,7.6377075684,0.0017799824,7.1070056664,0.287512368,-5.458,-2.8972,2.5608,2.75709,336.43153,-1.07546 -0.14132 -0.00006,0.022867,0.003099,0.002729
3-0021,monoCl,ALQYMMBOSNTGGH-UHFFFAOYSA-N,Clc1ccc2c(c1)ccc1c2ccc2-c3c4c(-c12)cccc4ccc3,C24H13Cl,d4tzvp,336.821,13,24,1,-1383.409792224707,-1383.1037048104,0.0002090048,-1383.1660195895,7.744639892915,7.5282507364,0.0017799824,6.9975488357,0.287512368,-8.0808,-0.5595,7.5213,2.6444,318.49246,-1.03009 -0.14585 -0.00007,0.022867,0.003099,0.002729
3-0022,monoCl,AMBLQLFSECBHHH-UHFFFAOYSA-N,c1ccc2c(c1)c1ccc3c(c1c1c2c2ccccc2cc1)cccc3Cl,C26H15Cl,xtb2,362.859,15,26,1,-67.897414747834,-67.561767626452,0.000224644557,-67.628745400977,10.886942498343,10.650437568921,0.001838549567,10.102274014065,0.315074284329,-10.0093,-7.563,2.446307966461,2.21,279.79787,0.846 -0.197 0.036,0.01070597,0.004132335,0.003065472
3-0022,monoCl,AMBLQLFSECBHHH-UHFFFAOYSA-N,c1ccc2c(c1)c1ccc3c(c1c1c2c2ccccc2cc1)cccc3Cl,C26H15Cl,r2scan,362.859,15,26,1,-1459.80000900774,-1459.4563933871,0.0002164703,-1459.520934001,8.589322165044,8.3448467243,0.0019732331,7.7565271119,0.3238100714,-5.2931,-2.4716,2.8215,2.05219,351.91959,0.78028 -0.20057 0.05293,0.010621,0.004068,0.003018
3-0022,monoCl,AMBLQLFSECBHHH-UHFFFAOYSA-N,c1ccc2c(c1)c1ccc3c(c1c1c2c2ccccc2cc1)cccc3Cl,C26H15Cl,d4tzvp,362.859,15,26,1,-1460.890334421455,-1460.5467188009,0.0002164703,-1460.6112594148,8.469501119417,8.2250256785,0.0019732331,7.6367060676,0.3238100714,-7.7761,-0.0906,7.6855,2.02275,336.68498,0.76346 -0.21867 0.05101,0.010621,0.004068,0.003018
3-0023,monoCl,AMJDMFWZRIFYRR-UHFFFAOYSA-N,c1ccc2c(c1)ccc1c2cc2c3cc4cc(Cl)ccc4cc3ccc2c1,C26H15Cl,xtb2,362.859,15,26,1,-67.909208304653,-67.574179261363,0.000228128957,-67.642195909941,10.898736055162,10.662849203832,0.001835065167,10.115724523029,0.314163640113,-10.0753,-7.7241,2.351277684158,2.35,279.857489,0.515 0.768 -0.000,0.01064045,0.00295825,0.002314715