id,subset,key,smiles,formula,level,mwt,nH,nC,nCl,E,H,S,G,dE,dH,dS,dG,zpe,homo,lumo,gap,Mu,alpha,tMu,rotA,rotB,rotC
2-0439,pubchemPCH,YJPIUEXKPWIALW-UHFFFAOYSA-N,Clc1c(Cl)c(Cl)c2-c3c4c(-c2c1Cl)c(Cl)c(Cl)c(c4c(c(c3Cl)Cl)Cl)Cl,C16Cl10,r2scan,546.706,0,16,10,-5211.345509893335,-5211.2132886782,0.0002524152,-5211.288546278,4.890119612516,4.8192708894,0.001260521,4.4434463468,0.1080012888,-6.1841,-3.8815,2.3026,0.36856,357.99089,0.14500 -0.00001 0.00001,0.004627,0.003022,0.001899
2-0439,pubchemPCH,YJPIUEXKPWIALW-UHFFFAOYSA-N,Clc1c(Cl)c(Cl)c2-c3c4c(-c2c1Cl)c(Cl)c(Cl)c(c4c(c(c3Cl)Cl)Cl)Cl,C16Cl10,d4tzvp,546.706,0,16,10,-5212.355686573603,-5212.2234653585,0.0002524152,-5212.2987229583,4.867656353275,4.7968076307,0.001260521,4.4209830881,0.1080012888,-8.8594,-1.6522,7.2072,0.32525,334.44486,0.12796 -0.00002 0.00001,0.004627,0.003022,0.001899
2-0440,pubchemPCH,YJPWRZPXSYBUHM-UHFFFAOYSA-N,c1c(Cl)cc2c(c1)c1ccc(c(c1cc2)Cl)Cl,C14H7Cl3,xtb2,281.569,7,14,3,-47.224829990486,-47.050254385746,0.00018800085,-47.106306839179,5.916726038941,5.798803115321,0.00102193638,5.494112783021,0.159677285592,-10.7229,-7.8006,2.922278794332,1.367,184.511942,-0.348 -0.410 0.000,0.03580164,0.005178677,0.004524249
2-0440,pubchemPCH,YJPWRZPXSYBUHM-UHFFFAOYSA-N,c1c(Cl)cc2c(c1)c1ccc(c(c1cc2)Cl)Cl,C14H7Cl3,r2scan,281.569,7,14,3,-1918.147413841927,-1917.9691427559,0.0001829215,-1918.0236808,4.673506955021,4.5518874003,0.0010982197,4.2244530817,0.1637836328,-6.0047,-2.5001,3.5046,1.2711,216.53238,-0.31090 -0.39169 -0.00002,0.035179,0.005129,0.004476
2-0440,pubchemPCH,YJPWRZPXSYBUHM-UHFFFAOYSA-N,c1c(Cl)cc2c(c1)c1ccc(c(c1cc2)Cl)Cl,C14H7Cl3,d4tzvp,281.569,7,14,3,-1918.831108816476,-1918.6528377305,0.0001829215,-1918.7073757746,4.619632247394,4.4980126927,0.0010982197,4.1705783748,0.1637836328,-8.7222,0.0245,8.7467,1.29176,208.92621,-0.31422 -0.39943 -0.00003,0.035179,0.005129,0.004476
2-0441,pubchemPCH,YKHRNTXAFSOBQH-UHFFFAOYSA-N,c1ccc2c(c1)c(Cl)c1c(c2Cl)cccc1Cl,C14H7Cl3,xtb2,281.569,7,14,3,-47.209717276774,-47.035354336611,0.000187208746,-47.091170624103,5.901613325229,5.783903066186,0.001022728484,5.478976567945,0.159483939929,-10.2038,-8.2641,1.939676346397,1.348,184.58929,-0.326 -0.418 0.000,0.0165297,0.01099116,0.006601561
2-0441,pubchemPCH,YKHRNTXAFSOBQH-UHFFFAOYSA-N,c1ccc2c(c1)c(Cl)c1c(c2Cl)cccc1Cl,C14H7Cl3,r2scan,281.569,7,14,3,-1918.121896135252,-1917.9435815363,0.0001818579,-1917.9978024576,4.647989248346,4.5263261807,0.0010992833,4.1985747393,0.1639112571,-5.341,-3.1171,2.2239,1.39694,214.87053,-0.31624 -0.44948 -0.00016,0.016175,0.010818,0.006574
2-0441,pubchemPCH,YKHRNTXAFSOBQH-UHFFFAOYSA-N,c1ccc2c(c1)c(Cl)c1c(c2Cl)cccc1Cl,C14H7Cl3,d4tzvp,281.569,7,14,3,-1918.803303107829,-1918.6249885088,0.0001818579,-1918.6792094301,4.591826538747,4.470163471,0.0010992833,4.1424120303,0.1639112571,-7.8826,-0.7762,7.1064,1.45709,210.22853,-0.30864 -0.48303 0.00656,0.016175,0.010818,0.006574
2-0442,pubchemPCH,YLYGQCOXHGIYEA-UHFFFAOYSA-N,c1c(Cl)cc2c(c1)c1c(cc2)ccc(c1Cl)Cl,C14H7Cl3,xtb2,281.569,7,14,3,-47.217671925762,-47.04316541391,0.000187157524,-47.098966429818,5.909567974217,5.791714143485,0.001022779706,5.48677237366,0.15969657735,-10.6733,-7.7624,2.910805201889,2.833,184.516374,-0.271 1.068 0.171,0.02540396,0.006585111,0.005266587
2-0442,pubchemPCH,YLYGQCOXHGIYEA-UHFFFAOYSA-N,c1c(Cl)cc2c(c1)c1c(cc2)ccc(c1Cl)Cl,C14H7Cl3,r2scan,281.569,7,14,3,-1918.1361647328,-1917.9576271791,0.0001814848,-1918.0117368665,4.662257845894,4.5403718235,0.0010996564,4.2125091482,0.1642444282,-5.8849,-2.4395,3.4454,2.65829,214.33989,-0.29402 0.98486 0.19328,0.025311,0.006456,0.005187
2-0442,pubchemPCH,YLYGQCOXHGIYEA-UHFFFAOYSA-N,c1c(Cl)cc2c(c1)c1c(cc2)ccc(c1Cl)Cl,C14H7Cl3,d4tzvp,281.569,7,14,3,-1918.819704717078,-1918.6411671634,0.0001814848,-1918.6952768508,4.608228147996,4.4863421256,0.0010996564,4.158479451,0.1642444282,-8.565,0.052,8.617,2.7698,206.958,-0.30909 1.02602 0.19801,0.025311,0.006456,0.005187
2-0443,pubchemPCH,YOGNSITWAIHLJK-UHFFFAOYSA-N,c1cc(Cl)c2c(c1)c(Cl)c1c(c2Cl)cccc1Cl,C14H6Cl4,xtb2,316.014,6,14,4,-51.252006340283,-51.086014625381,0.000194367898,-51.143965414257,5.854860017713,5.745520983931,0.001032473728,5.437688941413,0.149853845988,-10.2916,-8.4376,1.853992061703,0.029,197.000997,0.000 0.000 0.011,0.01584084,0.00780722,0.005307207
2-0443,pubchemPCH,YOGNSITWAIHLJK-UHFFFAOYSA-N,c1cc(Cl)c2c(c1)c(Cl)c1c(c2Cl)cccc1Cl,C14H6Cl4,r2scan,316.014,6,14,4,-2377.687598582054,-2377.5178928296,0.0001906967,-2377.5747490542,4.59697009238,4.4839158712,0.0011073563,4.1537574674,0.1540913036,-5.4101,-3.2835,2.1266,0.21777,230.08992,-0.00003 -0.00008 0.08568,0.015198,0.007719,0.005373
2-0443,pubchemPCH,YOGNSITWAIHLJK-UHFFFAOYSA-N,c1cc(Cl)c2c(c1)c(Cl)c1c(c2Cl)cccc1Cl,C14H6Cl4,d4tzvp,316.014,6,14,4,-2378.404067121289,-2378.2343613688004,0.0001906967,-2378.2912175934,4.545314589967,4.4322603688,0.0011073563,4.1021019656,0.1540913036,-7.9522,-0.9646,6.9876,0.25566,224.04982,-0.00004 -0.00006 0.10058,0.015198,0.007719,0.005373
2-0444,pubchemPCH,YRGPUDDSOGXBQM-UHFFFAOYSA-N,Clc1c(Cl)c2c(Cl)c(Cl)c(c3c2c(c1Cl)c1c(Cl)c(Cl)cc2c1c3ccc2)Cl,C20H4Cl8,xtb2,527.876,4,20,8,-81.33426000357,-81.140354733056,0.00026135543,-81.218277854489,8.034200440838,7.915832078484,0.001435198598,7.487927615489,0.168775586108,-10.5782,-8.9555,1.622706778763,3.655,304.69496,0.848 1.101 -0.370,0.004824225,0.003291263,0.002121325
2-0444,pubchemPCH,YRGPUDDSOGXBQM-UHFFFAOYSA-N,Clc1c(Cl)c2c(Cl)c(Cl)c(c3c2c(c1Cl)c1c(Cl)c(Cl)cc2c1c3ccc2)Cl,C20H4Cl8,r2scan,527.876,4,20,8,-4445.811050555713,-4445.6127519053,0.000249338,-4445.6870920153,6.265695759989,6.1429324845,0.0015439032,5.6826175185,0.1741553596,-5.5772,-3.7107,1.8665,3.50153,380.3637,0.80995 1.05294 -0.36474,0.004793,0.003256,0.002105
2-0444,pubchemPCH,YRGPUDDSOGXBQM-UHFFFAOYSA-N,Clc1c(Cl)c2c(Cl)c(Cl)c(c3c2c(c1Cl)c1c(Cl)c(Cl)cc2c1c3ccc2)Cl,C20H4Cl8,d4tzvp,527.876,4,20,8,-4446.906626964284,-4446.7083283139,0.000249338,-4446.7826684239,6.211845782625,6.0890825075,0.0015439032,5.6287675419,0.1741553596,-8.0425,-1.4893,6.5532,3.70973,357.59227,0.83029 1.13673 -0.38545,0.004793,0.003256,0.002105
2-0445,pubchemPCH,YSFLKFZEQBZEPU-UHFFFAOYSA-N,c1ccc2c(c1Cl)c(Cl)c(cc2)Cl,C10H5Cl3,xtb2,231.509,5,10,3,-37.619307887326,-37.493008067508,0.000166130982,-37.542540019874,4.271354949113,4.187544640135,0.000748117686,3.964493351758,0.114333054665,-10.5766,-7.8571,2.719515546739,3.594,144.724831,0.739 1.206 0.000,0.02815125,0.0164017,0.01036359
2-0445,pubchemPCH,YSFLKFZEQBZEPU-UHFFFAOYSA-N,c1ccc2c(c1Cl)c(Cl)c(cc2)Cl,C10H5Cl3,r2scan,231.509,5,10,3,-1764.519620714637,-1764.39061726,0.0001650938,-1764.4398399887,3.369121548173,3.282606742,0.0008019188,3.043514573,0.1173076652,-5.7897,-2.5257,3.264,3.5842,155.60252,0.69917 1.22456 0.00000,0.027705,0.015924,0.010112
2-0445,pubchemPCH,YSFLKFZEQBZEPU-UHFFFAOYSA-N,c1ccc2c(c1Cl)c(Cl)c(cc2)Cl,C10H5Cl3,d4tzvp,231.509,5,10,3,-1765.043923268719,-1764.9149198141,0.0001650938,-1764.9641425428,3.333749585449,3.2472347793,0.0008019188,3.0081426108,0.1173076652,-8.5472,-0.0054,8.5418,3.74278,152.41158,0.73490 1.27599 0.00000,0.027705,0.015924,0.010112
2-0446,pubchemPCH,YTCZMRZGPORONA-UHFFFAOYSA-N,Clc1cc(Cl)c2c(c1Cl)c(Cl)c(c1c2c(Cl)c(Cl)cc1Cl)Cl,C14H2Cl8,xtb2,453.794,2,14,8,-67.430980210856,-67.29840080961,0.000237668759,-67.369261750152,5.677664404186,5.60173768406,0.001056790451,5.286655610564,0.111126145077,-10.8956,-8.7073,2.188295042735,0.852,247.374332,-0.205 -0.220 0.148,0.006775272,0.004492344,0.002910501
2-0446,pubchemPCH,YTCZMRZGPORONA-UHFFFAOYSA-N,Clc1cc(Cl)c2c(c1Cl)c(Cl)c(c1c2c(Cl)c(Cl)cc1Cl)Cl,C14H2Cl8,r2scan,453.794,2,14,8,-4215.982099638946,-4215.8463661434,0.0002277521,-4215.9142704265,4.4245847382,4.3455027738,0.0011379481,4.0062233657,0.1150840705,-6.0629,-3.3522,2.7107,0.85734,289.38703,-0.16264 -0.27088 0.11809,0.006577,0.004448,0.002937
2-0446,pubchemPCH,YTCZMRZGPORONA-UHFFFAOYSA-N,Clc1cc(Cl)c2c(c1Cl)c(Cl)c(c1c2c(Cl)c(Cl)cc1Cl)Cl,C14H2Cl8,d4tzvp,453.794,2,14,8,-4216.845935289249,-4216.7102017937,0.0002277521,-4216.778106076799,4.398078908966,4.3189969449,0.0011379481,3.979717537,0.1150840705,-8.782,-0.9364,7.8456,0.95586,274.27458,-0.19215 -0.29790 0.12551,0.006577,0.004448,0.002937
2-0447,pubchemPCH,YTXVVUVUGSNHGG-UHFFFAOYSA-N,Clc1ccc2-c3c4c(-c2c1Cl)cccc4ccc3,C16H8Cl2,xtb2,271.146,8,16,2,-47.460788497318,-47.265188982079,0.000183303089,-47.319840798179,6.655134174068,6.520908396709,0.001116136001,6.188132447337,0.181132166145,-10.5105,-8.0882,2.422293035,3.384,189.564418,1.184 -0.609 -0.000,0.02459593,0.008317123,0.006215388
2-0447,pubchemPCH,YTXVVUVUGSNHGG-UHFFFAOYSA-N,Clc1ccc2-c3c4c(-c2c1Cl)cccc4ccc3,C16H8Cl2,r2scan,271.146,8,16,2,-1534.764490574073,-1534.5647222822,0.0001785775,-1534.6179651534,5.242873115399,5.1044773158,0.0011990643,4.7469761702,0.1857124175,-5.7743,-2.9139,2.8604,3.12094,221.22188,1.09502 -0.55546 -0.00004,0.02433,0.008215,0.006142
2-0447,pubchemPCH,YTXVVUVUGSNHGG-UHFFFAOYSA-N,Clc1ccc2-c3c4c(-c2c1Cl)cccc4ccc3,C16H8Cl2,d4tzvp,271.146,8,16,2,-1535.48617039267,-1535.2864021008,0.0001785775,-1535.339644972,5.176347870262,5.0379520706,0.0011990643,4.6804509258,0.1857124175,-8.4309,-0.5221,7.9088,3.09382,214.32965,1.06599 -0.58752 -0.00005,0.02433,0.008215,0.006142
2-0448,pubchemPCH,YZRALHPIAKHIIT-UHFFFAOYSA-N,c1c(Cl)cc2c(c1)c1c(Cl)cccc1cc2,C14H8Cl2,xtb2,247.124,8,14,2,-43.16982176028,-42.987002794495,0.000176624784,-43.039663473972,5.95076017976,5.824593895095,0.00101640805,5.5215518345,0.169317648799,-10.5873,-7.5684,3.018895824706,2.904,172.08962,-0.917 0.670 0.128,0.0285563,0.009143798,0.006977134
2-0448,pubchemPCH,YZRALHPIAKHIIT-UHFFFAOYSA-N,c1c(Cl)cc2c(c1)c1c(Cl)cccc1cc2,C14H8Cl2,r2scan,247.124,8,14,2,-1458.559368245724,-1458.3723966068,0.0001721287,-1458.4237167934,4.702182961586,4.571862854,0.0010921007,4.2462529436,0.1739009365,-5.8275,-2.3096,3.5179,2.75717,197.07122,-0.88327 0.61341 0.14209,0.028179,0.008992,0.006866
2-0448,pubchemPCH,YZRALHPIAKHIIT-UHFFFAOYSA-N,c1c(Cl)cc2c(c1)c1c(Cl)cccc1cc2,C14H8Cl2,d4tzvp,247.124,8,14,2,-1459.206974343412,-1459.0200027045,0.0001721287,-1459.0713228911,4.64277373657,4.5124536289,0.0010921007,4.1868437193,0.1739009365,-8.5061,0.212,8.7181,2.85568,191.8619,-0.91954 0.62942 0.14319,0.028179,0.008992,0.006866
2-0449,pubchemPCH,ZAQGRBSNUJKDAC-UHFFFAOYSA-N,c1cc(Cl)c(c2c1ccc1c2c(Cl)c(cc1)Cl)Cl,C14H6Cl4,xtb2,316.014,6,14,4,-51.256411310578,-51.090552231468,0.000194104743,-51.148424560484,5.859264988008,5.750058590018,0.001032736883,5.44214808764,0.149792515053,-10.5466,-7.8998,2.646808204485,4.508,197.091727,-0.000 1.774 0.000,0.01605159,0.00795737,0.005751049
2-0449,pubchemPCH,ZAQGRBSNUJKDAC-UHFFFAOYSA-N,c1cc(Cl)c(c2c1ccc1c2c(Cl)c(cc1)Cl)Cl,C14H6Cl4,r2scan,316.014,6,14,4,-2377.699995275586,-2377.5301758217,0.0001870674,-2377.5859499798,4.609366785912,4.4961988633,0.0011109856,4.164958393,0.1544028914,-5.7266,-2.5694,3.1572,4.23809,224.2243,-0.00007 1.66736 0.00001,0.015953,0.007696,0.005653
2-0449,pubchemPCH,ZAQGRBSNUJKDAC-UHFFFAOYSA-N,c1cc(Cl)c(c2c1ccc1c2c(Cl)c(cc1)Cl)Cl,C14H6Cl4,d4tzvp,316.014,6,14,4,-2378.419272547757,-2378.2494530939,0.0001870674,-2378.305227252,4.560520016435,4.4473520939,0.0011109856,4.1161116242,0.1544028914,-8.415,-0.1178,8.2972,4.4491,216.00671,-0.00007 1.75038 0.00002,0.015953,0.007696,0.005653
2-0450,pubchemPCH,ZBIUGKVJKDNCKS-UHFFFAOYSA-N,c1cc2c(Cl)ccc3c2c(c1)c1cccc2c1c3ccc2Cl,C20H10Cl2,xtb2,321.206,10,20,2,-57.072909029334,-56.828741511536,0.000201906339,-56.888939886423,8.307103692752,8.138473083114,0.001393221313,7.723084147539,0.226828541828,-9.9575,-8.1771,1.780432386865,0.701,229.468105,-0.000 -0.276 0.000,0.01892454,0.004925232,0.003910135
2-0450,pubchemPCH,ZBIUGKVJKDNCKS-UHFFFAOYSA-N,c1cc2c(Cl)ccc3c2c(c1)c1cccc2c1c3ccc2Cl,C20H10Cl2,r2scan,321.206,10,20,2,-1688.391451015997,-1688.1427207334,0.0001984126,-1688.2018774542,6.546425836881,6.3732309294,0.0014933578,5.9279861684,0.231550955,-5.0499,-3.0762,1.9737,0.69549,290.66628,-0.00000 -0.27362 0.00001,0.018727,0.004864,0.003865
2-0450,pubchemPCH,ZBIUGKVJKDNCKS-UHFFFAOYSA-N,c1cc2c(Cl)ccc3c2c(c1)c1cccc2c1c3ccc2Cl,C20H10Cl2,d4tzvp,321.206,10,20,2,-1689.26952706007,-1689.0207967775,0.0001984126,-1689.0799534983,6.45840165185,6.2852067443,0.0014933578,5.8399619843,0.231550955,-7.4252,-0.8345,6.5907,0.66285,277.60716,-0.00001 -0.26078 0.00002,0.018727,0.004864,0.003865
2-0451,pubchemPCH,ZBQZXTBAGBTUAD-UHFFFAOYSA-N,c1cc(Cl)c2c(c1)c(Cl)ccc2,C10H6Cl2,xtb2,197.064,6,10,2,-33.578390230907,-33.443693279141,0.000153468801,-33.48945000215,4.319479663719,4.227272222793,0.000743875471,4.00548575072,0.124029468695,-10.5701,-7.6463,2.923812637556,0.0,132.166027,0.000 0.000 0.000,0.0467573,0.01698972,0.01246166
2-0451,pubchemPCH,ZBQZXTBAGBTUAD-UHFFFAOYSA-N,c1cc(Cl)c2c(c1)c(Cl)ccc2,C10H6Cl2,r2scan,197.064,6,10,2,-1304.956272991573,-1304.8184179922,0.0001501945,-1304.8631984876,3.422495427877,3.327129077,0.0007999063,3.0886369404,0.1275482854,-5.8149,-2.4064,3.4085,2E-05,139.84842,-0.00000 -0.00000 -0.00000,0.046414,0.016687,0.012274
2-0451,pubchemPCH,ZBQZXTBAGBTUAD-UHFFFAOYSA-N,c1cc(Cl)c2c(c1)c(Cl)ccc2,C10H6Cl2,d4tzvp,197.064,6,10,2,-1305.444172142108,-1305.3063171427,0.0001501945,-1305.3510976381,3.381274421078,3.2859080701,0.0007999063,3.0474159341,0.1275482854,-8.5703,0.1366,8.7069,1E-05,138.31846,-0.00000 -0.00000 0.00000,0.046414,0.016687,0.012274
2-0452,pubchemPCH,ZEBYCAKNJNPDOT-UHFFFAOYSA-N,c1c2c(Cl)ccc(c2c2c(c1)c(Cl)ccc2Cl)Cl,C14H6Cl4,xtb2,316.014,6,14,4,-51.259976221237,-51.094007943092,0.000194799475,-51.152087406597,5.862829898667,5.753514301642,0.001032042151,5.445810933753,0.149898482854,-10.6369,-7.9961,2.640843665534,0.045,196.850457,0.000 -0.018 0.000,0.01237092,0.008335069,0.005444045
2-0452,pubchemPCH,ZEBYCAKNJNPDOT-UHFFFAOYSA-N,c1c2c(Cl)ccc(c2c2c(c1)c(Cl)ccc2Cl)Cl,C14H6Cl4,r2scan,316.014,6,14,4,-2377.704635081452,-2377.5346298771,0.0001879194,-2377.5906580492,4.614006591778,4.5006529187,0.0011101336,4.1696664624,0.1545226321,-5.8217,-2.7692,3.0525,0.1042,222.88226,0.00001 -0.04099 0.00000,0.012169,0.008144,0.005388
2-0452,pubchemPCH,ZEBYCAKNJNPDOT-UHFFFAOYSA-N,c1c2c(Cl)ccc(c2c2c(c1)c(Cl)ccc2Cl)Cl,C14H6Cl4,d4tzvp,316.014,6,14,4,-2378.423207508998,-2378.2532023046,0.0001879194,-2378.3092304767,4.564454977676,4.4511013046,0.0011101336,4.1201148489,0.1545226321,-8.5188,-0.2878,8.231,0.10144,215.81074,0.00001 -0.03991 -0.00001,0.012169,0.008144,0.005388
2-0453,pubchemPCH,ZERACHMJDVLOLJ-UHFFFAOYSA-N,c1ccc2c(c1)c(Cl)c(c1c2cc(Cl)c2c1cccc2)Cl,C18H9Cl3,xtb2,331.629,9,18,3,-56.811175428522,-56.588390416666,0.00020704722,-56.650121545191,7.542920463645,7.390951303189,0.001298578572,7.003780100991,0.205078324824,-10.3644,-7.9441,2.420248911007,1.61,224.544102,-0.148 -0.484 -0.381,0.01191907,0.006682457,0.004403422
2-0453,pubchemPCH,ZERACHMJDVLOLJ-UHFFFAOYSA-N,c1ccc2c(c1)c(Cl)c(c1c2cc(Cl)c2c1cccc2)Cl,C18H9Cl3,r2scan,331.629,9,18,3,-2071.74206847664,-2071.5140567245,0.0002000277,-2071.5736949892,5.944753869292,5.7875565313,0.0013952421,5.3715649683,0.2109413745,-5.5725,-2.6741,2.8984,1.45978,269.71274,-0.16007 -0.37602 -0.40351,0.011762,0.006602,0.004361
2-0453,pubchemPCH,ZERACHMJDVLOLJ-UHFFFAOYSA-N,c1ccc2c(c1)c(Cl)c(c1c2cc(Cl)c2c1cccc2)Cl,C18H9Cl3,d4tzvp,331.629,9,18,3,-2072.586064395313,-2072.3580526432,0.0002000277,-2072.4176909079,5.873284940419,5.7160876024,0.0013952421,5.3000960403,0.2109413745,-8.161,-0.2764,7.8846,1.52135,259.82662,-0.19489 -0.39496 -0.40530,0.011762,0.006602,0.004361
2-0454,pubchemPCH,ZESOIRUQAFULRH-UHFFFAOYSA-N,Clc1cc2cc3c(cc2cc1)cc1c(c3)cc2c(c1)cccc2,C22H13Cl,xtb2,312.799,13,22,1,-58.29440930745,-58.008486953471,0.000207017896,-58.07020933912,9.244088071291,9.043144738992,0.001560487666,8.57788534025,0.267926224591,-9.5476,-8.328,1.219646160905,2.54,239.891699,0.945 -0.324 -0.000,0.03954016,0.00279069,0.002606712
2-0454,pubchemPCH,ZESOIRUQAFULRH-UHFFFAOYSA-N,Clc1cc2cc3c(cc2cc1)cc1c(c3)cc2c(c1)cccc2,C22H13Cl,r2scan,312.799,13,22,1,-1306.183845928439,-1305.8916706458,0.0002010024,-1305.9515995136,7.296566806185,7.0893688206,0.0016745724,6.5900949271,0.2747290974,-4.6088,-3.3204,1.2884,2.34237,355.40253,0.85642 -0.34028 -0.00004,0.03901,0.002773,0.002589
2-0454,pubchemPCH,ZESOIRUQAFULRH-UHFFFAOYSA-N,Clc1cc2cc3c(cc2cc1)cc1c(c3)cc2c(c1)cccc2,C22H13Cl,d4tzvp,312.799,13,22,1,-1307.102563048071,-1306.8103877655,0.0002010024,-1306.8703166333,7.183032631845,6.9758346461,0.0016745724,6.4765607539,0.2747290974,-6.8772,-1.1477,5.7295,2.37083,337.78064,0.86889 -0.33916 0.00000,0.03901,0.002773,0.002589
2-0455,pubchemPCH,ZETHCGFFBMBNSK-UHFFFAOYSA-N,c1cc(Cl)c2-c3c(-c2c1)c(Cl)c(c(c3Cl)Cl)Cl,C12H3Cl5,xtb2,324.421,3,12,5,-49.937149383097,-49.815005128176,0.000200622176,-49.874820629863,4.824518960104,4.749585272783,0.00085384154,4.495012417005,0.105961491261,-10.8625,-8.4386,2.423915255004,3.078,183.814882,-1.025 0.645 -0.000,0.01381664,0.007446666,0.004838754
2-0455,pubchemPCH,ZETHCGFFBMBNSK-UHFFFAOYSA-N,c1cc(Cl)c2-c3c(-c2c1)c(Cl)c(c(c3Cl)Cl)Cl,C12H3Cl5,r2scan,324.421,3,12,5,-2759.810165402843,-2759.6861135059,0.0001946994,-2759.7441631249,3.761790856307,3.6849485687,0.0009195492,3.4107848388,0.1081195365,-5.8541,-3.073,2.7811,2.82762,216.15322,-0.87958 0.68108 -0.00002,0.013648,0.007385,0.004792
2-0455,pubchemPCH,ZETHCGFFBMBNSK-UHFFFAOYSA-N,c1cc(Cl)c2-c3c(-c2c1)c(Cl)c(c(c3Cl)Cl)Cl,C12H3Cl5,d4tzvp,324.421,3,12,5,-2760.479771780027,-2760.3557198831,0.0001946994,-2760.4137695021,3.729424256711,3.6525819693,0.0009195492,3.3784182397,0.1081195365,-8.5989,-0.4596,8.1393,2.97936,206.40037,-0.93768 0.70334 -0.00001,0.013648,0.007385,0.004792
2-0456,pubchemPCH,ZIZPHVOCGLTRSA-UHFFFAOYSA-N,c1ccc2c(c1)c1c3ccc(cc3c3c(c1c1c2cccc1)cc(cc3)Cl)Cl,C26H14Cl2,xtb2,397.304,14,26,2,-71.955754600899,-71.628164766081,0.000235625664,-71.698416557951,10.856239980383,10.627792337525,0.001844472856,10.077862754353,0.305633535682,-10.1675,-7.7312,2.436343164577,2.403,291.958004,-0.829 -0.452 -0.049,0.005554163,0.004704771,0.0028423
2-0456,pubchemPCH,ZIZPHVOCGLTRSA-UHFFFAOYSA-N,c1ccc2c(c1)c1c3ccc(cc3c3c(c1c1c2cccc1)cc(cc3)Cl)Cl,C26H14Cl2,r2scan,397.304,14,26,2,-1919.387838045463,-1919.0525560427,0.0002264619,-1919.1200756638,8.560429599999,8.3242877771,0.0019801533,7.7339049062,0.3141232729,-5.391,-2.5665,2.8245,2.23883,363.99912,-0.76569 -0.43264 -0.04852,0.005498,0.004656,0.002801
2-0456,pubchemPCH,ZIZPHVOCGLTRSA-UHFFFAOYSA-N,c1ccc2c(c1)c1c3ccc(cc3c3c(c1c1c2cccc1)cc(cc3)Cl)Cl,C26H14Cl2,d4tzvp,397.304,14,26,2,-1920.514909061655,-1920.1796270589,0.0002264619,-1920.24714668,8.446799797377,8.2106579743,0.0019801533,7.6202751048,0.3141232729,-7.8547,-0.1836,7.6711,2.22201,347.25119,-0.75503 -0.43765 -0.05085,0.005498,0.004656,0.002801
2-0457,pubchemPCH,ZJVABCVSWULMQL-UHFFFAOYSA-N,c1ccc2-c3c4c(-c2c1)ccc(c4c(cc3)Cl)Cl,C16H8Cl2,xtb2,271.146,8,16,2,-47.460588583414,-47.264949525088,0.000180938515,-47.318896343267,6.654934260164,6.520668939718,0.001118500575,6.187187992425,0.181194563576,-10.4387,-8.1237,2.315057903425,2.768,189.584113,-1.089 -0.000 0.000,0.02605545,0.008004022,0.006123066
2-0457,pubchemPCH,ZJVABCVSWULMQL-UHFFFAOYSA-N,c1ccc2-c3c4c(-c2c1)ccc(c4c(cc3)Cl)Cl,C16H8Cl2,r2scan,271.146,8,16,2,-1534.758789758496,-1534.5593249345,0.0001773855,-1534.6122124233,5.237172299822,5.0990799681,0.0012002563,4.7412234401,0.185277158,-5.6809,-2.978,2.7029,2.70209,224.81093,-1.06306 -0.00004 0.00013,0.025366,0.007919,0.006035
2-0457,pubchemPCH,ZJVABCVSWULMQL-UHFFFAOYSA-N,c1ccc2-c3c4c(-c2c1)ccc(c4c(cc3)Cl)Cl,C16H8Cl2,d4tzvp,271.146,8,16,2,-1535.480117666754,-1535.2806528428,0.0001773855,-1535.3335403316,5.170295144346,5.0322028126,0.0012002563,4.6743462854,0.185277158,-8.3068,-0.6229,7.6839,2.99796,217.09324,-1.17947 -0.00004 0.00015,0.025366,0.007919,0.006035
2-0458,pubchemPCH,ZJYQWRAURUNIIW-UHFFFAOYSA-N,c1ccc2c(c1)cc1c(c2Cl)cccc1Cl,C14H8Cl2,xtb2,247.124,8,14,2,-43.168491830549,-42.985903191345,0.000176996533,-43.038674707598,5.949430250029,5.823494291945,0.001016036301,5.520563068126,0.169037708094,-10.1625,-8.0673,2.095224628597,0.635,172.16261,-0.249 -0.020 0.000,0.02184872,0.01176502,0.007647189