id,subset,key,smiles,formula,level,mwt,nH,nC,nCl,E,H,S,G,dE,dH,dS,dG,zpe,homo,lumo,gap,Mu,alpha,tMu,rotA,rotB,rotC
2-0134,pubchemPCH,HUNSJRGBYUHHRT-UHFFFAOYSA-N,Clc1cc(Cl)c2c(c1)c1cc(Cl)cc(c1cc2)Cl,C14H6Cl4,r2scan,316.014,6,14,4,-2377.730209995247,-2377.5602703158,0.000191836,-2377.6174662281,4.639581505573,4.5262933574,0.001106217,4.1964746413,0.1541187897,-5.9666,-2.6456,3.321,0.39926,230.45883,-0.00000 0.15708 0.00000,0.012706,0.005918,0.004037
2-0134,pubchemPCH,HUNSJRGBYUHHRT-UHFFFAOYSA-N,Clc1cc(Cl)c2c(c1)c1cc(Cl)cc(c1cc2)Cl,C14H6Cl4,d4tzvp,316.014,6,14,4,-2378.448659013579,-2378.2787193342,0.000191836,-2378.3359152465,4.589906482257,4.4766183342,0.001106217,4.1467996187,0.1541187897,-8.6329,-0.1695,8.4634,0.3899,221.91156,0.00000 0.15339 -0.00001,0.012706,0.005918,0.004037
2-0135,pubchemPCH,HVQJVACOBZOJFZ-UHFFFAOYSA-N,c1cc2cc3cc4cc5c(Cl)ccc(c5cc4cc3cc2cc1)Cl,C22H12Cl2,xtb2,347.244,12,22,2,-62.345444549965,-62.067575784088,0.000215567521,-62.131847240546,9.206080942781,9.013191198584,0.001568842437,8.54544082499,0.258557494063,-9.681,-8.4753,1.205717835794,2.004,252.145569,-0.788 0.000 0.000,0.01602089,0.003004815,0.002530251
2-0135,pubchemPCH,HVQJVACOBZOJFZ-UHFFFAOYSA-N,c1cc2cc3cc4cc5c(Cl)ccc(c5cc4cc3cc2cc1)Cl,C22H12Cl2,r2scan,347.244,12,22,2,-1765.764451778718,-1765.4803805366,0.000208617,-1765.542579704,7.260451053696,7.0613571086,0.0016838696,6.559311249,0.2653672025,-4.7249,-3.455,1.2699,1.81822,361.21637,-0.71533 -0.00001 0.00001,0.015744,0.002983,0.002508
2-0135,pubchemPCH,HVQJVACOBZOJFZ-UHFFFAOYSA-N,c1cc2cc3cc4cc5c(Cl)ccc(c5cc4cc3cc2cc1)Cl,C22H12Cl2,d4tzvp,347.244,12,22,2,-1766.719183080831,-1766.4351118387,0.000208617,-1766.4973110060998,7.152376702365,6.9532827571,0.0016838696,6.4512368987,0.2653672025,-6.9871,-1.2804,5.7067,1.62348,344.98818,-0.63871 -0.00001 0.00000,0.015744,0.002983,0.002508
2-0136,pubchemPCH,HVYRFNJXZVEGFK-UHFFFAOYSA-N,c1cc(Cl)c2c(c1Cl)c(Cl)c(c(c2)Cl)Cl,C10H3Cl5,xtb2,300.399,3,10,5,-45.713706965866,-45.60399007625,0.000188297788,-45.660131061865,4.187669285603,4.120441906827,0.000759759672,3.893919560377,0.095069532831,-10.8675,-8.324,2.543514484226,2.151,169.755193,0.819 0.213 -0.000,0.01304839,0.01113059,0.006006716
2-0136,pubchemPCH,HVYRFNJXZVEGFK-UHFFFAOYSA-N,c1cc(Cl)c2c(c1Cl)c(Cl)c(c(c2)Cl)Cl,C10H3Cl5,r2scan,300.399,3,10,5,-2683.674572255439,-2683.5623911028,0.0001829493,-2683.6169374454,3.290629883439,3.2209373792,0.0008178869,2.9770842927,0.0979885465,-5.9987,-2.9471,3.0516,2.06031,187.41852,0.77839 0.22541 0.01824,0.01278,0.010926,0.005932
2-0136,pubchemPCH,HVYRFNJXZVEGFK-UHFFFAOYSA-N,c1cc(Cl)c2c(c1Cl)c(Cl)c(c(c2)Cl)Cl,C10H3Cl5,d4tzvp,300.399,3,10,5,-2684.270606398931,-2684.1584252463,0.0001829493,-2684.2129715889,3.265880791181,3.1961882871,0.0008178869,2.9523352009,0.0979885465,-8.7501,-0.4724,8.2777,2.27717,181.22548,0.85765 0.25832 0.01772,0.01278,0.010926,0.005932
2-0137,pubchemPCH,HXNHKVXDBQVPTN-UHFFFAOYSA-N,c1c2c(cc3c1cc1c(c3)ccc(c1)Cl)cc1c(c2)cc(cc1)Cl,C22H12Cl2,xtb2,347.244,12,22,2,-62.347580807355,-62.069848111724,0.000215607372,-62.134131449614,9.208217200171,9.01546352622,0.001568802586,8.547725034058,0.258399510859,-9.7198,-8.5008,1.219073475562,1.76,252.030524,-0.000 -0.692 0.000,0.03320906,0.002049835,0.001930665
2-0137,pubchemPCH,HXNHKVXDBQVPTN-UHFFFAOYSA-N,c1c2c(cc3c1cc1c(c3)ccc(c1)Cl)cc1c(c2)cc(cc1)Cl,C22H12Cl2,r2scan,347.244,12,22,2,-1765.766742277973,-1765.4830809619,0.0002090265,-1765.5454022178,7.262741552951,7.0640575339,0.0016834601,6.5621337628,0.2648827961,-4.7431,-3.4563,1.2868,1.84424,381.44962,-0.00001 -0.72556 -0.00003,0.03278,0.002036,0.001917
2-0137,pubchemPCH,HXNHKVXDBQVPTN-UHFFFAOYSA-N,c1c2c(cc3c1cc1c(c3)ccc(c1)Cl)cc1c(c2)cc(cc1)Cl,C22H12Cl2,d4tzvp,347.244,12,22,2,-1766.720303445471,-1766.4366421293998,0.0002090265,-1766.4989633853,7.153497067005,6.9548130478,0.0016834601,6.4528892779,0.2648827961,-7.0174,-1.2909,5.7265,1.84236,358.53025,-0.00000 -0.72483 -0.00002,0.03278,0.002036,0.001917
2-0138,pubchemPCH,IDZCBMITAPKIMX-UHFFFAOYSA-N,c1cc2c(Cl)cc(c3-c4c(-c(c1)c23)cccc4)Cl,C16H8Cl2,xtb2,271.146,8,16,2,-47.463759940926,-47.268038559918,0.000183652238,-47.322794474745,6.658105617676,6.523757974548,0.001115786852,6.191086123903,0.181224206237,-10.5409,-8.1453,2.395623486567,2.142,189.561257,-0.423 -0.729 0.000,0.01798714,0.01003658,0.006442019
2-0138,pubchemPCH,IDZCBMITAPKIMX-UHFFFAOYSA-N,c1cc2c(Cl)cc(c3-c4c(-c(c1)c23)cccc4)Cl,C16H8Cl2,r2scan,271.146,8,16,2,-1534.76839426084,-1534.5686529208,0.0001796166,-1534.6222056063,5.246776802166,5.1084079544,0.0011980252,4.7512166231,0.1855689343,-5.8057,-2.9763,2.8294,1.98196,221.81723,-0.38074 -0.68047 0.00001,0.017845,0.009908,0.006371
2-0138,pubchemPCH,IDZCBMITAPKIMX-UHFFFAOYSA-N,c1cc2c(Cl)cc(c3-c4c(-c(c1)c23)cccc4)Cl,C16H8Cl2,d4tzvp,271.146,8,16,2,-1535.489493502643,-1535.2897521626,0.0001796166,-1535.3433048481,5.179670980235,5.0413021324,0.0011980252,4.6841108019,0.1855689343,-8.4523,-0.6071,7.8452,2.07147,215.10487,-0.42550 -0.69506 0.00001,0.017845,0.009908,0.006371
2-0139,pubchemPCH,IEYBEGUKGBXAMW-UHFFFAOYSA-N,c1ccc2c(c1)c1c(c3c2cccc3)c2cc(Cl)ccc2c2c1cccc2,C26H15Cl,xtb2,362.859,15,26,1,-67.902808089746,-67.566979084044,0.000225075343,-67.634085297586,10.892335840255,10.655649026513,0.001838118781,10.107613910674,0.315225446481,-10.0276,-7.5522,2.47540793231,2.271,279.799594,0.438 0.730 0.272,0.007450573,0.005611953,0.003616723
2-0139,pubchemPCH,IEYBEGUKGBXAMW-UHFFFAOYSA-N,c1ccc2c(c1)c1c(c3c2cccc3)c2cc(Cl)ccc2c2c1cccc2,C26H15Cl,r2scan,362.859,15,26,1,-1459.805047689312,-1459.4613387407,0.0002164118,-1459.5258619064,8.594360846616,8.3497920779,0.0019732916,7.7614550173,0.3238724282,-5.2944,-2.4328,2.8616,2.10173,342.92953,0.39442 0.67759 0.26269,0.007383,0.00555,0.003564
2-0139,pubchemPCH,IEYBEGUKGBXAMW-UHFFFAOYSA-N,c1ccc2c(c1)c1c(c3c2cccc3)c2cc(Cl)ccc2c2c1cccc2,C26H15Cl,d4tzvp,362.859,15,26,1,-1460.897354967618,-1460.553646019,0.0002164118,-1460.6181691847,8.47652166558,8.2319528966,0.0019732916,7.6436158375,0.3238724282,-7.7561,-0.0394,7.7167,2.11624,329.42952,0.38139 0.69033 0.26679,0.007383,0.00555,0.003564
2-0140,pubchemPCH,IIBSQRLACOMCBX-UHFFFAOYSA-N,c1cc(Cl)cc2c1cc1c(c2)c(Cl)c(cc1)Cl,C14H7Cl3,xtb2,281.569,7,14,3,-47.218691308478,-47.044509024368,0.000187942951,-47.100544215309,5.910587356933,5.793057753943,0.001021994279,5.488350159151,0.159302470781,-10.3886,-8.267,2.121576697442,2.969,184.519019,-0.196 -1.152 0.000,0.0304026,0.00535175,0.004550694
2-0140,pubchemPCH,IIBSQRLACOMCBX-UHFFFAOYSA-N,c1cc(Cl)cc2c1cc1c(c2)c(Cl)c(cc1)Cl,C14H7Cl3,r2scan,281.569,7,14,3,-1918.140762949678,-1917.9627880013,0.0001803559,-1918.0165611242,4.666856062772,4.5455326457,0.0011007853,4.2173334059,0.1635558861,-5.4968,-3.0261,2.4707,2.90767,225.70334,-0.15375 -1.13356 0.00001,0.030038,0.005299,0.004505
2-0140,pubchemPCH,IIBSQRLACOMCBX-UHFFFAOYSA-N,c1cc(Cl)cc2c1cc1c(c2)c(Cl)c(cc1)Cl,C14H7Cl3,d4tzvp,281.569,7,14,3,-1918.820842747355,-1918.642867799,0.0001803559,-1918.6966409219,4.609366178273,4.4880427612,0.0011007853,4.1598435221,0.1635558861,-8.0626,-0.6314,7.4312,2.96818,217.42457,-0.14503 -1.15871 0.00002,0.030038,0.005299,0.004505
2-0141,pubchemPCH,IJAZMDTXBCJEHT-UHFFFAOYSA-N,c1ccc2c(c1)c1cc(Cl)c3c(c1cc2Cl)cccc3,C18H10Cl2,xtb2,297.184,10,18,2,-52.771539725948,-52.540434261715,0.000196128285,-52.598909909922,7.592327132096,7.432037519263,0.001292593111,7.046650882408,0.214594952008,-10.2882,-7.7557,2.532556396564,0.0,212.098141,0.000 -0.000 0.000,0.01570335,0.0068637,0.004776127
2-0141,pubchemPCH,IJAZMDTXBCJEHT-UHFFFAOYSA-N,c1ccc2c(c1)c1cc(Cl)c3c(c1cc2Cl)cccc3,C18H10Cl2,r2scan,297.184,10,18,2,-1612.178912330244,-1611.9428532941,0.0001909919,-1611.9997975176,5.998319325664,5.8330747037,0.0013873661,5.4194313652,0.2199823802,-5.5214,-2.499,3.0224,0.00013,255.16817,-0.00000 0.00000 0.00005,0.015451,0.006821,0.004732
2-0141,pubchemPCH,IJAZMDTXBCJEHT-UHFFFAOYSA-N,c1ccc2c(c1)c1cc(Cl)c3c(c1cc2Cl)cccc3,C18H10Cl2,d4tzvp,297.184,10,18,2,-1612.986611356081,-1612.7505523199998,0.0001909919,-1612.8074965434998,5.921107863427,5.7558632414,0.0013873661,5.3422199039,0.2199823802,-8.1024,-0.081,8.0214,0.00014,246.74543,-0.00001 -0.00001 0.00005,0.015451,0.006821,0.004732
2-0142,pubchemPCH,IMJCZWGXNRUUNP-UHFFFAOYSA-N,Clc1c(Cl)c(Cl)c2c(c1)c1ccc3c(c1cc2)cccc3,C18H9Cl3,xtb2,331.629,9,18,3,-56.815226697319,-56.592510547629,0.000208862658,-56.654782949001,7.546971732442,7.395071434152,0.001296763134,7.008441504801,0.204844242484,-10.4781,-7.8847,2.593346892209,4.127,224.764962,-1.621 -0.089 0.000,0.01893746,0.004226144,0.003455094
2-0142,pubchemPCH,IMJCZWGXNRUUNP-UHFFFAOYSA-N,Clc1c(Cl)c(Cl)c2c(c1)c1ccc3c(c1cc2)cccc3,C18H9Cl3,r2scan,331.629,9,18,3,-2071.75252328049,-2071.5250441116,0.000202465,-2071.5854090378,5.955208673142,5.7985439184,0.0013928048,5.3832790169,0.2101455064,-5.6724,-2.5875,3.0849,3.68546,275.58364,-1.44910 -0.04937 -0.00000,0.018576,0.004202,0.003427
2-0142,pubchemPCH,IMJCZWGXNRUUNP-UHFFFAOYSA-N,Clc1c(Cl)c(Cl)c2c(c1)c1ccc3c(c1cc2)cccc3,C18H9Cl3,d4tzvp,331.629,9,18,3,-2072.596780600584,-2072.3693014317,0.000202465,-2072.4296663579003,5.88400114569,5.7273363909,0.0013928048,5.3120714903,0.2101455064,-8.2555,-0.1556,8.0999,3.7498,264.37,-1.47423 -0.05488 0.00000,0.018576,0.004202,0.003427
2-0143,pubchemPCH,IMWQJAMYYYKETC-UHFFFAOYSA-N,Clc1c2c(Cl)c(Cl)c3c4c2c2c(c1Cl)c(Cl)c(c1c2c4c(c(c3Cl)Cl)c(c1Cl)Cl)Cl,C20Cl10,xtb2,594.75,0,20,10,-88.387331459713,-88.231853202553,0.00027006643,-88.312373508583,7.696152682803,7.611490277043,0.00137742034,7.200812401513,0.128639649448,-11.1882,-9.0392,2.149023248332,0.424,324.569184,-0.000 -0.000 0.167,0.003221029,0.003220786,0.001634511
2-0143,pubchemPCH,IMWQJAMYYYKETC-UHFFFAOYSA-N,Clc1c2c(Cl)c(Cl)c3c4c2c2c(c1Cl)c(Cl)c(c1c2c4c(c(c3Cl)Cl)c(c1Cl)Cl)Cl,C20Cl10,r2scan,594.75,0,20,10,-5363.733107187199,-5363.5745723065,0.0002628001,-5363.6529261644,5.948852557309,5.8611320905,0.0014769609,5.4207759664,0.132613999,-6.3708,-3.6785,2.6923,0.24996,405.32814,-0.00014 -0.00013 0.09834,0.003147,0.003147,0.001587
2-0143,pubchemPCH,IMWQJAMYYYKETC-UHFFFAOYSA-N,Clc1c2c(Cl)c(Cl)c3c4c2c2c(c1Cl)c(Cl)c(c1c2c4c(c(c3Cl)Cl)c(c1Cl)Cl)Cl,C20Cl10,d4tzvp,594.75,0,20,10,-5364.889077999934,-5364.7305431192,0.0002628001,-5364.8088969771,5.909803948475,5.8220834822,0.0014769609,5.3817273581,0.132613999,-9.2395,-1.4521,7.7874,0.38782,378.55522,0.00002 -0.00017 0.15258,0.003147,0.003147,0.001587
2-0144,pubchemPCH,INDMYVNUGZOGMH-UHFFFAOYSA-N,Clc1c(Cl)c(Cl)c2c(c1Cl)c1cccc3c1c1c2cccc1cc3Cl,C20H7Cl5,xtb2,424.541,7,20,5,-69.206067943491,-68.98677026796,0.00023185455,-69.055897702044,8.173135493834,8.029374726463,0.00141398629,7.607794713102,0.198170882884,-10.5637,-8.1956,2.368092762602,1.906,266.985215,0.675 -0.324 0.035,0.009136641,0.003709245,0.002744686
2-0144,pubchemPCH,INDMYVNUGZOGMH-UHFFFAOYSA-N,Clc1c(Cl)c(Cl)c2c(c1Cl)c1cccc3c1c1c2cccc1cc3Cl,C20H7Cl5,r2scan,424.541,7,20,5,-3067.107140420458,-3066.8826716972,0.0002223239,-3066.9489575572,6.411950433038,6.2630170848,0.0015201819,5.8097746659,0.2041901384,-5.6633,-2.909,2.7543,1.38955,321.89896,0.46288 -0.28922 0.03084,0.009043,0.003658,0.002733
2-0144,pubchemPCH,INDMYVNUGZOGMH-UHFFFAOYSA-N,Clc1c(Cl)c(Cl)c2c(c1Cl)c1cccc3c1c1c2cccc1cc3Cl,C20H7Cl5,d4tzvp,424.541,7,20,5,-3068.096682950845,-3067.8722142275,0.0002223239,-3067.9385000875004,6.343729655905,6.1947963077,0.0015201819,5.7415538895,0.2041901384,-8.1733,-0.5238,7.6495,1.49795,307.66741,0.49956 -0.31087 0.03328,0.009043,0.003658,0.002733
2-0145,pubchemPCH,INFCXUSPEMHRPZ-UHFFFAOYSA-N,c1ccc2c(c1Cl)ccc1c2c2cccc(c2cc1)Cl,C18H10Cl2,xtb2,297.184,10,18,2,-52.765010983047,-52.533970866302,0.000193242197,-52.591586027312,7.585798389195,7.42557412385,0.001295479199,7.039326999798,0.214832678754,-10.3481,-7.6526,2.695560240695,1.162,212.026045,0.000 0.457 -0.000,0.02557762,0.00520524,0.004409954
2-0145,pubchemPCH,INFCXUSPEMHRPZ-UHFFFAOYSA-N,c1ccc2c(c1Cl)ccc1c2c2cccc(c2cc1)Cl,C18H10Cl2,r2scan,297.184,10,18,2,-1612.170154996753,-1611.933576986,0.0001871997,-1611.9893905888,5.989561992173,5.8237983956,0.0013911583,5.4090244364,0.2209691642,-5.5919,-2.5358,3.0561,1.09224,250.75523,0.00000 0.42971 -0.00001,0.025414,0.005118,0.004338
2-0145,pubchemPCH,INFCXUSPEMHRPZ-UHFFFAOYSA-N,c1ccc2c(c1Cl)ccc1c2c2cccc(c2cc1)Cl,C18H10Cl2,d4tzvp,297.184,10,18,2,-1612.976394740891,-1612.7398167301,0.0001871997,-1612.7956303329,5.910891248237,5.7451276515,0.0013911583,5.3303536933,0.2209691642,-8.2033,-0.1058,8.0975,1.14932,242.57727,0.00000 0.45217 -0.00001,0.025414,0.005118,0.004338
2-0146,pubchemPCH,IQKRPUHMIZLFCM-UHFFFAOYSA-N,Clc1ccc2c(c1)c(Cl)c1c(c2Cl)cccc1,C14H7Cl3,xtb2,281.569,7,14,3,-47.218572151529,-47.044182398269,0.000187773007,-47.10016692029,5.910468199984,5.792731127844,0.001022164223,5.487972864132,0.15948299699,-10.296,-8.3061,1.989888609618,2.01,184.493601,-0.756 -0.234 -0.000,0.01828278,0.008525358,0.005814176
2-0146,pubchemPCH,IQKRPUHMIZLFCM-UHFFFAOYSA-N,Clc1ccc2c(c1)c(Cl)c1c(c2Cl)cccc1,C14H7Cl3,r2scan,281.569,7,14,3,-1918.13960264067,-1917.9613602687,0.000182948,-1918.0159062099,4.665695753764,4.5441049131,0.0010981932,4.2166784916,0.1637308367,-5.4367,-3.1283,2.3084,1.97507,219.479,-0.73172 -0.26146 -0.00000,0.017974,0.008444,0.005745
2-0146,pubchemPCH,IQKRPUHMIZLFCM-UHFFFAOYSA-N,Clc1ccc2c(c1)c(Cl)c1c(c2Cl)cccc1,C14H7Cl3,d4tzvp,281.569,7,14,3,-1918.820344791167,-1918.6421024192,0.000182948,-1918.6966483604,4.608868222085,4.4872773814,0.0010981932,4.1598509606,0.1637308367,-7.9842,-0.7745,7.2097,2.03053,213.60429,-0.75464 -0.26210 -0.00001,0.017974,0.008444,0.005745
2-0147,pubchemPCH,IQVHLRNTEZRVHR-UHFFFAOYSA-N,c1ccc2c(c1)c1cc3ccc4c(c3c(c1cc2)Cl)cccc4,C22H13Cl,xtb2,312.799,13,22,1,-58.306781983529,-58.019564696795,0.000206060053,-58.081001501735,9.25646074737,9.054222482316,0.001561445509,8.588677502865,0.269323758765,-10.0271,-7.6153,2.411783305699,1.663,239.91527,0.218 -0.606 0.115,0.02064746,0.004863708,0.003985891
2-0147,pubchemPCH,IQVHLRNTEZRVHR-UHFFFAOYSA-N,c1ccc2c(c1)c1cc3ccc4c(c3c(c1cc2)Cl)cccc4,C22H13Cl,r2scan,312.799,13,22,1,-1306.194637657481,-1305.900878853,0.000199632,-1305.9603991334,7.307358535227,7.0985770278,0.0016759428,6.5988945469,0.2764725872,-5.2649,-2.5176,2.7473,1.53192,307.75061,0.23051 -0.53500 0.15450,0.020278,0.004811,0.003939
2-0147,pubchemPCH,IQVHLRNTEZRVHR-UHFFFAOYSA-N,c1ccc2c(c1)c1cc3ccc4c(c3c(c1cc2)Cl)cccc4,C22H13Cl,d4tzvp,312.799,13,22,1,-1307.125747558965,-1306.8319887545,0.000199632,-1306.8915090349,7.206217142739,6.9974356351,0.0016759428,6.4977531555,0.2764725872,-7.7937,-0.1378,7.6559,1.56884,294.0261,0.24297 -0.54767 0.14824,0.020278,0.004811,0.003939
2-0148,pubchemPCH,IQWONTMOMXEVFY-UHFFFAOYSA-N,Clc1c(Cl)cc2c(c1Cl)c1c(Cl)c(Cl)c(c(c1c(c2Cl)Cl)Cl)Cl,C14HCl9,xtb2,488.239,1,14,9,-71.479149497149,-71.35477473052,0.000248494931,-71.428863494225,5.636791319454,5.569069233945,0.001062868675,5.252174937951,0.101489578557,-11.0357,-8.7938,2.24196234898,0.753,260.168545,-0.151 0.249 0.056,0.00637815,0.003625165,0.002468179
2-0148,pubchemPCH,IQWONTMOMXEVFY-UHFFFAOYSA-N,Clc1c(Cl)cc2c(c1Cl)c1c(Cl)c(Cl)c(c(c1c(c2Cl)Cl)Cl)Cl,C14HCl9,r2scan,488.239,1,14,9,-4675.567214023758,-4675.439695349,0.0002363807,-4675.5101722463,4.392977520245,4.3221103766,0.0011462313,3.980361317,0.1056162365,-6.1349,-3.4116,2.7233,0.64519,309.66961,-0.13197 0.21014 0.05344,0.006271,0.00356,0.002485
2-0148,pubchemPCH,IQWONTMOMXEVFY-UHFFFAOYSA-N,Clc1c(Cl)cc2c(c1Cl)c1c(Cl)c(Cl)c(c(c1c(c2Cl)Cl)Cl)Cl,C14HCl9,d4tzvp,488.239,1,14,9,-4676.468374406799,-4676.340855732,0.0002363807,-4676.411332629299,4.373242064276,4.302374921,0.0011462313,3.9606258615,0.1056162365,-8.8526,-1.0378,7.8148,0.76502,291.52094,-0.14847 0.25347 0.06557,0.006271,0.00356,0.002485
2-0149,pubchemPCH,IRDBFEGQJFJKEZ-UHFFFAOYSA-N,Clc1c(Cl)c(Cl)c2c(c1Cl)c1c(Cl)c(Cl)c(c(c1cc2)Cl)Cl,C14H2Cl8,xtb2,453.794,2,14,8,-67.438097876972,-67.305307174141,0.00023659825,-67.375848942294,5.684782070302,5.608644048591,0.00105786096,5.293242802706,0.111204753885,-11.0154,-8.5839,2.431544935719,1.698,247.51516,0.000 0.668 -0.000,0.009124775,0.00340385,0.002630841
2-0149,pubchemPCH,IRDBFEGQJFJKEZ-UHFFFAOYSA-N,Clc1c(Cl)c(Cl)c2c(c1Cl)c1c(Cl)c(Cl)c(c(c1cc2)Cl)Cl,C14H2Cl8,r2scan,453.794,2,14,8,-4216.002705610323,-4215.8664156754,0.0002249145,-4215.9334739401,4.445190709576,4.3655523058,0.0011407857,4.0254268793,0.115706142,-6.1017,-3.1655,2.9362,1.5902,292.73627,0.00002 0.62562 -0.00001,0.008983,0.003355,0.002621
2-0149,pubchemPCH,IRDBFEGQJFJKEZ-UHFFFAOYSA-N,Clc1c(Cl)c(Cl)c2c(c1Cl)c1c(Cl)c(Cl)c(c(c1cc2)Cl)Cl,C14H2Cl8,d4tzvp,453.794,2,14,8,-4216.867877796964,-4216.7315878621,0.0002249145,-4216.7986461268,4.420021416682,4.3403830133,0.0011407857,4.000257587,0.115706142,-8.8028,-0.7629,8.0399,1.74162,276.87231,0.00003 0.68519 -0.00003,0.008983,0.003355,0.002621
2-0150,pubchemPCH,IRDHCTNSVFZURJ-UHFFFAOYSA-N,c1ccc2c(c1Cl)c1ccc3c(c1cc2)c(Cl)ccc3,C18H10Cl2,xtb2,297.184,10,18,2,-52.758295920208,-52.527388236939,0.000193214017,-52.584994996116,7.579083326356,7.418991494487,0.001295507379,7.032735968602,0.214671920775,-10.2233,-7.6895,2.533844830916,1.056,212.047248,0.000 -0.000 0.415,0.01847406,0.006768946,0.005225169
2-0150,pubchemPCH,IRDHCTNSVFZURJ-UHFFFAOYSA-N,c1ccc2c(c1Cl)c1ccc3c(c1cc2)c(Cl)ccc3,C18H10Cl2,r2scan,297.184,10,18,2,-1612.158120949596,-1611.9218188841,0.0001892938,-1611.9782568452,5.977527945016,5.8120402937,0.0013890642,5.3978906928,0.22064199,-5.4283,-2.5186,2.9097,1.15181,252.29761,0.00013 -0.00019 0.45315,0.01828,0.006618,0.005142
2-0150,pubchemPCH,IRDHCTNSVFZURJ-UHFFFAOYSA-N,c1ccc2c(c1Cl)c1ccc3c(c1cc2)c(Cl)ccc3,C18H10Cl2,d4tzvp,297.184,10,18,2,-1612.96492467908,-1612.7286226136,0.0001892938,-1612.7850605747,5.899421186426,5.733933535,0.0013890642,5.3197839351,0.22064199,-7.9942,-0.0928,7.9014,1.17267,244.35135,0.00012 -0.00020 0.46135,0.01828,0.006618,0.005142
2-0151,pubchemPCH,ISRRGFXOMZCSFJ-UHFFFAOYSA-N,Clc1cc(Cl)c2c(c1Cl)c1c(Cl)c(Cl)cc(c1c(c2Cl)Cl)Cl,C14H2Cl8,xtb2,453.794,2,14,8,-67.431394932067,-67.298760336561,0.000235404986,-67.368946333087,5.678079125397,5.602097211011,0.001059054224,5.286340193499,0.111168896551,-10.8443,-8.6838,2.160494529261,0.045,247.369905,0.000 -0.018 0.000,0.005872254,0.005139463,0.003005704
2-0151,pubchemPCH,ISRRGFXOMZCSFJ-UHFFFAOYSA-N,Clc1cc(Cl)c2c(c1Cl)c1c(Cl)c(Cl)cc(c1c(c2Cl)Cl)Cl,C14H2Cl8,r2scan,453.794,2,14,8,-4215.982307391517,-4215.8465723162,0.0002297836,-4215.9150822885,4.42479249077,4.3457089466,0.0011359166,4.0070352277,0.1149939922,-5.9484,-3.3593,2.5891,0.222,290.46683,0.00008 -0.08734 -0.00000,0.005823,0.004946,0.003017
2-0151,pubchemPCH,ISRRGFXOMZCSFJ-UHFFFAOYSA-N,Clc1cc(Cl)c2c(c1Cl)c1c(Cl)c(Cl)cc(c1c(c2Cl)Cl)Cl,C14H2Cl8,d4tzvp,453.794,2,14,8,-4216.846399751274,-4216.710664675999,0.0002297836,-4216.7791746483,4.398543370991,4.3194598272,0.0011359166,3.9807861085,0.1149939922,-8.631,-1.0175,7.6135,0.24627,275.32804,0.00001 -0.09689 0.00001,0.005823,0.004946,0.003017
2-0152,pubchemPCH,ISVLLUFINTVGNS-UHFFFAOYSA-N,c1ccc2c(c1)c1cc(Cl)cc(c1c(c2)Cl)Cl,C14H7Cl3,xtb2,281.569,7,14,3,-47.21804138363,-47.043516746882,0.000186818785,-47.099216767579,5.909937432085,5.792065476457,0.001023118445,5.487022711421,0.159728263329,-10.5626,-7.8121,2.750441447764,3.132,184.601437,-1.146 -0.454 -0.000,0.01356534,0.01038495,0.00588199
2-0152,pubchemPCH,ISVLLUFINTVGNS-UHFFFAOYSA-N,c1ccc2c(c1)c1cc(Cl)cc(c1c(c2)Cl)Cl,C14H7Cl3,r2scan,281.569,7,14,3,-1918.134167799038,-1917.9559552679,0.0001840037,-1918.0108159614,4.660260912132,4.5386999123,0.0010971375,4.2115882431,0.1636644154,-5.7742,-2.5137,3.2605,3.01383,212.65989,-1.09204 -0.46108 -0.02744,0.013343,0.010238,0.005836
2-0152,pubchemPCH,ISVLLUFINTVGNS-UHFFFAOYSA-N,c1ccc2c(c1)c1cc(Cl)cc(c1c(c2)Cl)Cl,C14H7Cl3,d4tzvp,281.569,7,14,3,-1918.817829757011,-1918.6396172259,0.0001840037,-1918.6944779194,4.606353187929,4.4847921881,0.0010971375,4.1576805196,0.1636644154,-8.4553,-0.0351,8.4202,3.11852,206.03113,-1.12839 -0.48100 -0.02535,0.013343,0.010238,0.005836